
    -----------------------------------------------------------------------
          Psi4: An Open-Source Ab Initio Electronic Structure Package
                               Psi4 1.3.2 release

                         Git: Rev {HEAD} ecbda83 


    R. M. Parrish, L. A. Burns, D. G. A. Smith, A. C. Simmonett,
    A. E. DePrince III, E. G. Hohenstein, U. Bozkaya, A. Yu. Sokolov,
    R. Di Remigio, R. M. Richard, J. F. Gonthier, A. M. James,
    H. R. McAlexander, A. Kumar, M. Saitow, X. Wang, B. P. Pritchard,
    P. Verma, H. F. Schaefer III, K. Patkowski, R. A. King, E. F. Valeev,
    F. A. Evangelista, J. M. Turney, T. D. Crawford, and C. D. Sherrill,
    J. Chem. Theory Comput. 13(7) pp 3185--3197 (2017).
    (doi: 10.1021/acs.jctc.7b00174)


                         Additional Contributions by
    P. Kraus, H. Kruse, M. H. Lechner, M. C. Schieber, R. A. Shaw,
    A. Alenaizan, R. Galvelis, Z. L. Glick, S. Lehtola, and J. P. Misiewicz

    -----------------------------------------------------------------------


    Psi4 started on: Monday, 09 September 2019 08:50PM

    Process ID: 94213
    Host:       node51.bme.utexas.edu
    PSIDATADIR: /home/xy3866/psi4conda/share/psi4
    Memory:     500.0 MiB
    Threads:    4
    
  ==> Input File <==

--------------------------------------------------------------------------
#psi4
#
memory 32 gb

molecule  {
0 1
  C        0.0000000    -1.3936580     1.0640200
  C        1.2077370    -0.6968160     1.0627950
  C        1.2077370     0.6968160     1.0627950
  C        0.0000000     1.3936580     1.0640200
  C       -1.2077370     0.6968160     1.0627950
  C       -1.2077370    -0.6968160     1.0627950
  H        0.0000000    -2.4753200     1.0692940
  H        2.1443140    -1.2373140     1.0618960
  H        2.1443140     1.2373140     1.0618960
  H        0.0000000     2.4753200     1.0692940
  H       -2.1443140     1.2373140     1.0618960
  H       -2.1443140    -1.2373140     1.0618960
--
0 1
  S        0.0000000     0.0000000    -2.6908080
  H        0.0000000     0.9544370    -1.7547400
  H        0.0000000    -0.9544370    -1.7547400
units angstrom
no_reorient  #important for SAPT in psi4, default
symmetry c1  #important for SAPT in psi4, default
}

set {
basis aug-cc-pVDZ
scf_type DF
freeze_core True
}
energy('sapt2+')
--------------------------------------------------------------------------

  Memory set to  29.802 GiB by Python driver.

  //>>>>>>>>>>>>>>>>>>>>>>>>>>>>>>>>>>>//
  //              Dimer HF             //
  //<<<<<<<<<<<<<<<<<<<<<<<<<<<<<<<<<<<//


*** tstart() called on node51.bme.utexas.edu
*** at Mon Sep  9 20:50:13 2019

   => Loading Basis Set <=

    Name: AUG-CC-PVDZ
    Role: ORBITAL
    Keyword: BASIS
    atoms 1-6         entry C          line   178 file /home/xy3866/psi4conda/share/psi4/basis/aug-cc-pvdz.gbs 
    atoms 7-12, 14-15 entry H          line    36 file /home/xy3866/psi4conda/share/psi4/basis/aug-cc-pvdz.gbs 
    atoms 13          entry S          line   698 file /home/xy3866/psi4conda/share/psi4/basis/aug-cc-pvdz.gbs 


         ---------------------------------------------------------
                                   SCF
               by Justin Turney, Rob Parrish, Andy Simmonett
                          and Daniel G. A. Smith
                              RHF Reference
                        4 Threads,  30517 MiB Core
         ---------------------------------------------------------

  ==> Geometry <==

    Molecular point group: c1
    Full point group: C2v

    Geometry (in Angstrom), charge = 0, multiplicity = 1:

       Center              X                  Y                   Z               Mass       
    ------------   -----------------  -----------------  -----------------  -----------------
         C            0.000000000000    -1.393658000000     1.122759518766    12.000000000000
         C            1.207737000000    -0.696816000000     1.121534518766    12.000000000000
         C            1.207737000000     0.696816000000     1.121534518766    12.000000000000
         C            0.000000000000     1.393658000000     1.122759518766    12.000000000000
         C           -1.207737000000     0.696816000000     1.121534518766    12.000000000000
         C           -1.207737000000    -0.696816000000     1.121534518766    12.000000000000
         H            0.000000000000    -2.475320000000     1.128033518766     1.007825032230
         H            2.144314000000    -1.237314000000     1.120635518766     1.007825032230
         H            2.144314000000     1.237314000000     1.120635518766     1.007825032230
         H            0.000000000000     2.475320000000     1.128033518766     1.007825032230
         H           -2.144314000000     1.237314000000     1.120635518766     1.007825032230
         H           -2.144314000000    -1.237314000000     1.120635518766     1.007825032230
         S            0.000000000000     0.000000000000    -2.632068481234    31.972071174400
         H            0.000000000000     0.954437000000    -1.696000481234     1.007825032230
         H            0.000000000000    -0.954437000000    -1.696000481234     1.007825032230

  Running in c1 symmetry.

  Rotational constants: A =      0.09427  B =      0.04071  C =      0.04054 [cm^-1]
  Rotational constants: A =   2826.03195  B =   1220.42223  C =   1215.34765 [MHz]
  Nuclear repulsion =  317.413695750532952

  Charge       = 0
  Multiplicity = 1
  Electrons    = 60
  Nalpha       = 30
  Nbeta        = 30

  ==> Algorithm <==

  SCF Algorithm Type is DF.
  DIIS enabled.
  MOM disabled.
  Fractional occupation disabled.
  Guess Type is SAD.
  Energy threshold   = 1.00e-08
  Density threshold  = 1.00e-08
  Integral threshold = 0.00e+00

  ==> Primary Basis <==

  Basis Set: AUG-CC-PVDZ
    Blend: AUG-CC-PVDZ
    Number of shells: 105
    Number of basis function: 237
    Number of Cartesian functions: 251
    Spherical Harmonics?: true
    Max angular momentum: 2

   => Loading Basis Set <=

    Name: (AUG-CC-PVDZ AUX)
    Role: JKFIT
    Keyword: DF_BASIS_SCF
    atoms 1-6         entry C          line   154 file /home/xy3866/psi4conda/share/psi4/basis/aug-cc-pvdz-jkfit.gbs 
    atoms 7-12, 14-15 entry H          line    70 file /home/xy3866/psi4conda/share/psi4/basis/aug-cc-pvdz-jkfit.gbs 
    atoms 13          entry S          line   690 file /home/xy3866/psi4conda/share/psi4/basis/aug-cc-pvdz-jkfit.gbs 

  ==> Pre-Iterations <==

   -------------------------------------------------------
    Irrep   Nso     Nmo     Nalpha   Nbeta   Ndocc  Nsocc
   -------------------------------------------------------
     A        237     237       0       0       0       0
   -------------------------------------------------------
    Total     237     237      30      30      30       0
   -------------------------------------------------------

  ==> Integral Setup <==

  ==> DiskDFJK: Density-Fitted J/K Matrices <==

    J tasked:                  Yes
    K tasked:                  Yes
    wK tasked:                  No
    OpenMP threads:              4
    Integrals threads:           4
    Memory [MiB]:            22888
    Algorithm:                Core
    Integral Cache:           SAVE
    Schwarz Cutoff:          1E-12
    Fitting Condition:       1E-10

   => Auxiliary Basis Set <=

  Basis Set: (AUG-CC-PVDZ AUX)
    Blend: AUG-CC-PVDZ-JKFIT
    Number of shells: 304
    Number of basis function: 900
    Number of Cartesian functions: 1036
    Spherical Harmonics?: true
    Max angular momentum: 3

  Minimum eigenvalue in the overlap matrix is 2.3316239659E-06.
  Using Symmetric Orthogonalization.

  SCF Guess: Superposition of Atomic Densities via on-the-fly atomic UHF.

  ==> Iterations <==

                           Total Energy        Delta E     RMS |[F,P]|

   @DF-RHF iter SAD:  -628.68136976244750   -6.28681e+02   0.00000e+00 
   @DF-RHF iter   1:  -629.22551834013109   -5.44149e-01   2.28096e-03 DIIS
   @DF-RHF iter   2:  -629.38919734637932   -1.63679e-01   1.05386e-03 DIIS
   @DF-RHF iter   3:  -629.42296488590728   -3.37675e-02   2.01302e-04 DIIS
   @DF-RHF iter   4:  -629.42511183602107   -2.14695e-03   4.15005e-05 DIIS
   @DF-RHF iter   5:  -629.42521523385085   -1.03398e-04   1.11089e-05 DIIS
   @DF-RHF iter   6:  -629.42522494778700   -9.71394e-06   2.84316e-06 DIIS
   @DF-RHF iter   7:  -629.42522565689501   -7.09108e-07   7.55769e-07 DIIS
   @DF-RHF iter   8:  -629.42522570470760   -4.78126e-08   1.73358e-07 DIIS
   @DF-RHF iter   9:  -629.42522570723804   -2.53044e-09   3.64417e-08 DIIS
   @DF-RHF iter  10:  -629.42522570735184   -1.13801e-10   9.95827e-09 DIIS
  Energy and wave function converged.


  ==> Post-Iterations <==

    Orbital Energies [Eh]
    ---------------------

    Doubly Occupied:                                                      

       1A    -91.952533     2A    -11.250791     3A    -11.250405  
       4A    -11.250014     5A    -11.249120     6A    -11.248795  
       7A    -11.248351     8A     -8.954903     9A     -6.637030  
      10A     -6.636019    11A     -6.633607    12A     -1.162164  
      13A     -1.026195    14A     -1.025828    15A     -0.968611  
      16A     -0.834328    17A     -0.834026    18A     -0.718700  
      19A     -0.652879    20A     -0.628105    21A     -0.596902  
      22A     -0.596713    23A     -0.572140    24A     -0.520891  
      25A     -0.502967    26A     -0.502685    27A     -0.477882  
      28A     -0.371931    29A     -0.346150    30A     -0.342601  

    Virtual:                                                              

      31A      0.032974    32A      0.039958    33A      0.041586  
      34A      0.055207    35A      0.055517    36A      0.060679  
      37A      0.074628    38A      0.077811    39A      0.097221  
      40A      0.099071    41A      0.124938    42A      0.132709  
      43A      0.135928    44A      0.140730    45A      0.141641  
      46A      0.141818    47A      0.148467    48A      0.149096  
      49A      0.149441    50A      0.156664    51A      0.160992  
      52A      0.166311    53A      0.181326    54A      0.186330  
      55A      0.187229    56A      0.187533    57A      0.187940  
      58A      0.188872    59A      0.192140    60A      0.195644  
      61A      0.217180    62A      0.240286    63A      0.240592  
      64A      0.264499    65A      0.266042    66A      0.287584  
      67A      0.291482    68A      0.310537    69A      0.317017  
      70A      0.330953    71A      0.337849    72A      0.339834  
      73A      0.349556    74A      0.359676    75A      0.374012  
      76A      0.380829    77A      0.381718    78A      0.387083  
      79A      0.404653    80A      0.411210    81A      0.414084  
      82A      0.422542    83A      0.428856    84A      0.437930  
      85A      0.438557    86A      0.439131    87A      0.446314  
      88A      0.475190    89A      0.487903    90A      0.509528  
      91A      0.512712    92A      0.529340    93A      0.532218  
      94A      0.543011    95A      0.543416    96A      0.565928  
      97A      0.569102    98A      0.570897    99A      0.579943  
     100A      0.586047   101A      0.590081   102A      0.596490  
     103A      0.602771   104A      0.605463   105A      0.616143  
     106A      0.628187   107A      0.654810   108A      0.670804  
     109A      0.675092   110A      0.683326   111A      0.686206  
     112A      0.688317   113A      0.698147   114A      0.714569  
     115A      0.722586   116A      0.731473   117A      0.733231  
     118A      0.736368   119A      0.756302   120A      0.775657  
     121A      0.778915   122A      0.783630   123A      0.784001  
     124A      0.788051   125A      0.851424   126A      0.853297  
     127A      0.853615   128A      0.857323   129A      0.890413  
     130A      0.892064   131A      0.919916   132A      0.922603  
     133A      0.939167   134A      0.940599   135A      0.944014  
     136A      0.949098   137A      0.970205   138A      0.973755  
     139A      0.982358   140A      1.005568   141A      1.006003  
     142A      1.015693   143A      1.027519   144A      1.072484  
     145A      1.094338   146A      1.096945   147A      1.109419  
     148A      1.122384   149A      1.160223   150A      1.191888  
     151A      1.219226   152A      1.229164   153A      1.246180  
     154A      1.246355   155A      1.258547   156A      1.320978  
     157A      1.348660   158A      1.349493   159A      1.353026  
     160A      1.424647   161A      1.497226   162A      1.509456  
     163A      1.528251   164A      1.529513   165A      1.532631  
     166A      1.534267   167A      1.562996   168A      1.580555  
     169A      1.603845   170A      1.623051   171A      1.629300  
     172A      1.634779   173A      1.646013   174A      1.658995  
     175A      1.693086   176A      1.705060   177A      1.714322  
     178A      1.719992   179A      1.744402   180A      1.763316  
     181A      1.782592   182A      1.789621   183A      1.796274  
     184A      1.852116   185A      1.852327   186A      1.910305  
     187A      1.914120   188A      1.926043   189A      1.938392  
     190A      1.961491   191A      1.961809   192A      1.980714  
     193A      1.992540   194A      2.001797   195A      2.018922  
     196A      2.046286   197A      2.073529   198A      2.103609  
     199A      2.110999   200A      2.118136   201A      2.133120  
     202A      2.162683   203A      2.200268   204A      2.204478  
     205A      2.213165   206A      2.222227   207A      2.248884  
     208A      2.259796   209A      2.275663   210A      2.290786  
     211A      2.355969   212A      2.370866   213A      2.372079  
     214A      2.402127   215A      2.427831   216A      2.448581  
     217A      2.529150   218A      2.558299   219A      2.614393  
     220A      2.685761   221A      2.788454   222A      2.794762  
     223A      2.798376   224A      2.808942   225A      2.817633  
     226A      2.970814   227A      2.977538   228A      2.979002  
     229A      3.139324   230A      3.141084   231A      3.152822  
     232A      3.168308   233A      3.380643   234A      3.559706  
     235A      3.559812   236A      3.884843   237A      4.853470  

    Final Occupation by Irrep:
              A 
    DOCC [    30 ]

  @DF-RHF Final Energy:  -629.42522570735184

   => Energetics <=

    Nuclear Repulsion Energy =            317.4136957505329519
    One-Electron Energy =               -1491.6913046211971050
    Two-Electron Energy =                 544.8523831633123109
    Total Energy =                       -629.4252257073518422

Computation Completed


Properties will be evaluated at   0.000000,   0.000000,   0.000000 [a0]

Properties computed using the SCF density matrix

  Nuclear Dipole Moment: [e a0]
     X:     0.0000      Y:    -0.0000      Z:     3.0679

  Electronic Dipole Moment: [e a0]
     X:     0.0000      Y:    -0.0000      Z:    -2.4124

  Dipole Moment: [e a0]
     X:     0.0000      Y:    -0.0000      Z:     0.6554     Total:     0.6554

  Dipole Moment: [D]
     X:     0.0000      Y:    -0.0000      Z:     1.6660     Total:     1.6660


*** tstop() called on node51.bme.utexas.edu at Mon Sep  9 20:50:22 2019
Module time:
	user time   =      28.30 seconds =       0.47 minutes
	system time =       0.83 seconds =       0.01 minutes
	total time  =          9 seconds =       0.15 minutes
Total time:
	user time   =      28.30 seconds =       0.47 minutes
	system time =       0.83 seconds =       0.01 minutes
	total time  =          9 seconds =       0.15 minutes

  //>>>>>>>>>>>>>>>>>>>>>>>>>>>>>>>>>>>//
  //            Monomer A HF           //
  //<<<<<<<<<<<<<<<<<<<<<<<<<<<<<<<<<<<//


*** tstart() called on node51.bme.utexas.edu
*** at Mon Sep  9 20:50:22 2019

   => Loading Basis Set <=

    Name: AUG-CC-PVDZ
    Role: ORBITAL
    Keyword: BASIS
    atoms 1-6         entry C          line   178 file /home/xy3866/psi4conda/share/psi4/basis/aug-cc-pvdz.gbs 
    atoms 7-12, 14-15 entry H          line    36 file /home/xy3866/psi4conda/share/psi4/basis/aug-cc-pvdz.gbs 
    atoms 13          entry S          line   698 file /home/xy3866/psi4conda/share/psi4/basis/aug-cc-pvdz.gbs 


         ---------------------------------------------------------
                                   SCF
               by Justin Turney, Rob Parrish, Andy Simmonett
                          and Daniel G. A. Smith
                              RHF Reference
                        4 Threads,  30517 MiB Core
         ---------------------------------------------------------

  ==> Geometry <==

    Molecular point group: c1
    Full point group: C2v

    Geometry (in Angstrom), charge = 0, multiplicity = 1:

       Center              X                  Y                   Z               Mass       
    ------------   -----------------  -----------------  -----------------  -----------------
         C            0.000000000000    -1.393658000000     1.122759518766    12.000000000000
         C            1.207737000000    -0.696816000000     1.121534518766    12.000000000000
         C            1.207737000000     0.696816000000     1.121534518766    12.000000000000
         C            0.000000000000     1.393658000000     1.122759518766    12.000000000000
         C           -1.207737000000     0.696816000000     1.121534518766    12.000000000000
         C           -1.207737000000    -0.696816000000     1.121534518766    12.000000000000
         H            0.000000000000    -2.475320000000     1.128033518766     1.007825032230
         H            2.144314000000    -1.237314000000     1.120635518766     1.007825032230
         H            2.144314000000     1.237314000000     1.120635518766     1.007825032230
         H            0.000000000000     2.475320000000     1.128033518766     1.007825032230
         H           -2.144314000000     1.237314000000     1.120635518766     1.007825032230
         H           -2.144314000000    -1.237314000000     1.120635518766     1.007825032230
      Gh(S)           0.000000000000     0.000000000000    -2.632068481234    31.972071174400
      Gh(H)           0.000000000000     0.954437000000    -1.696000481234     1.007825032230
      Gh(H)           0.000000000000    -0.954437000000    -1.696000481234     1.007825032230

  Running in c1 symmetry.

  Rotational constants: A =      0.09427  B =      0.04071  C =      0.04054 [cm^-1]
  Rotational constants: A =   2826.03195  B =   1220.42223  C =   1215.34765 [MHz]
  Nuclear repulsion =  203.653891607934128

  Charge       = 0
  Multiplicity = 1
  Electrons    = 42
  Nalpha       = 21
  Nbeta        = 21

  ==> Algorithm <==

  SCF Algorithm Type is DF.
  DIIS enabled.
  MOM disabled.
  Fractional occupation disabled.
  Guess Type is SAD.
  Energy threshold   = 1.00e-08
  Density threshold  = 1.00e-08
  Integral threshold = 0.00e+00

  ==> Primary Basis <==

  Basis Set: AUG-CC-PVDZ
    Blend: AUG-CC-PVDZ
    Number of shells: 105
    Number of basis function: 237
    Number of Cartesian functions: 251
    Spherical Harmonics?: true
    Max angular momentum: 2

   => Loading Basis Set <=

    Name: (AUG-CC-PVDZ AUX)
    Role: JKFIT
    Keyword: DF_BASIS_SCF
    atoms 1-6         entry C          line   154 file /home/xy3866/psi4conda/share/psi4/basis/aug-cc-pvdz-jkfit.gbs 
    atoms 7-12, 14-15 entry H          line    70 file /home/xy3866/psi4conda/share/psi4/basis/aug-cc-pvdz-jkfit.gbs 
    atoms 13          entry S          line   690 file /home/xy3866/psi4conda/share/psi4/basis/aug-cc-pvdz-jkfit.gbs 

  ==> Pre-Iterations <==

   -------------------------------------------------------
    Irrep   Nso     Nmo     Nalpha   Nbeta   Ndocc  Nsocc
   -------------------------------------------------------
     A        237     237       0       0       0       0
   -------------------------------------------------------
    Total     237     237      21      21      21       0
   -------------------------------------------------------

  ==> Integral Setup <==

  ==> DiskDFJK: Density-Fitted J/K Matrices <==

    J tasked:                  Yes
    K tasked:                  Yes
    wK tasked:                  No
    OpenMP threads:              4
    Integrals threads:           4
    Memory [MiB]:            22888
    Algorithm:                Core
    Integral Cache:           LOAD
    Schwarz Cutoff:          1E-12
    Fitting Condition:       1E-10

   => Auxiliary Basis Set <=

  Basis Set: (AUG-CC-PVDZ AUX)
    Blend: AUG-CC-PVDZ-JKFIT
    Number of shells: 304
    Number of basis function: 900
    Number of Cartesian functions: 1036
    Spherical Harmonics?: true
    Max angular momentum: 3

  Minimum eigenvalue in the overlap matrix is 2.3316239659E-06.
  Using Symmetric Orthogonalization.

  SCF Guess: Superposition of Atomic Densities via on-the-fly atomic UHF.

  ==> Iterations <==

                           Total Energy        Delta E     RMS |[F,P]|

   @DF-RHF iter SAD:  -230.14552407352539   -2.30146e+02   0.00000e+00 
   @DF-RHF iter   1:  -230.55341612774600   -4.07892e-01   2.18443e-03 DIIS
   @DF-RHF iter   2:  -230.69296021384037   -1.39544e-01   1.06829e-03 DIIS
   @DF-RHF iter   3:  -230.72710218921168   -3.41420e-02   1.70430e-04 DIIS
   @DF-RHF iter   4:  -230.72854704257350   -1.44485e-03   1.83064e-05 DIIS
   @DF-RHF iter   5:  -230.72856798985077   -2.09473e-05   3.43957e-06 DIIS
   @DF-RHF iter   6:  -230.72856876300057   -7.73150e-07   3.67225e-07 DIIS
   @DF-RHF iter   7:  -230.72856877253784   -9.53727e-09   5.30402e-08 DIIS
   @DF-RHF iter   8:  -230.72856877273750   -1.99663e-10   1.98105e-08 DIIS
   @DF-RHF iter   9:  -230.72856877275737   -1.98668e-11   5.44786e-09 DIIS
  Energy and wave function converged.


  ==> Post-Iterations <==

    Orbital Energies [Eh]
    ---------------------

    Doubly Occupied:                                                      

       1A    -11.242301     2A    -11.241818     3A    -11.241660  
       4A    -11.240591     5A    -11.240440     6A    -11.239919  
       7A     -1.152789     8A     -1.017250     9A     -1.016859  
      10A     -0.825723    11A     -0.825552    12A     -0.710250  
      13A     -0.644856    14A     -0.619483    15A     -0.588669  
      16A     -0.588232    17A     -0.501769    18A     -0.494656  
      19A     -0.494555    20A     -0.336342    21A     -0.336123  

    Virtual:                                                              

      22A      0.033030    23A      0.042267    24A      0.042404  
      25A      0.049979    26A      0.057423    27A      0.057459  
      28A      0.075211    29A      0.076262    30A      0.107085  
      31A      0.107390    32A      0.108424    33A      0.123358  
      34A      0.126044    35A      0.139282    36A      0.144213  
      37A      0.145976    38A      0.146496    39A      0.152905  
      40A      0.152979    41A      0.158102    42A      0.160317  
      43A      0.166686    44A      0.178469    45A      0.184317  
      46A      0.190638    47A      0.190843    48A      0.190889  
      49A      0.194172    50A      0.194606    51A      0.197577  
      52A      0.204186    53A      0.229880    54A      0.266748  
      55A      0.291952    56A      0.299378    57A      0.301387  
      58A      0.310260    59A      0.310698    60A      0.337034  
      61A      0.345058    62A      0.353740    63A      0.354727  
      64A      0.364338    65A      0.374980    66A      0.381493  
      67A      0.387094    68A      0.394669    69A      0.409823  
      70A      0.413312    71A      0.416049    72A      0.430785  
      73A      0.431195    74A      0.442866    75A      0.443012  
      76A      0.463994    77A      0.464522    78A      0.492198  
      79A      0.494267    80A      0.500921    81A      0.505774  
      82A      0.507237    83A      0.534035    84A      0.535649  
      85A      0.550943    86A      0.571959    87A      0.574368  
      88A      0.578713    89A      0.582472    90A      0.590596  
      91A      0.590956    92A      0.592434    93A      0.594983  
      94A      0.606451    95A      0.625548    96A      0.632493  
      97A      0.640320    98A      0.650491    99A      0.657425  
     100A      0.682498   101A      0.689995   102A      0.694793  
     103A      0.695981   104A      0.696344   105A      0.696821  
     106A      0.737782   107A      0.738378   108A      0.739226  
     109A      0.756869   110A      0.762373   111A      0.780426  
     112A      0.782577   113A      0.783438   114A      0.790909  
     115A      0.804746   116A      0.806616   117A      0.810277  
     118A      0.858544   119A      0.860444   120A      0.860799  
     121A      0.863780   122A      0.893964   123A      0.896178  
     124A      0.898133   125A      0.932547   126A      0.948699  
     127A      0.951454   128A      0.955734   129A      0.978168  
     130A      0.978225   131A      1.000909   132A      1.024122  
     133A      1.036914   134A      1.037693   135A      1.079543  
     136A      1.103707   137A      1.104282   138A      1.112581  
     139A      1.125399   140A      1.198727   141A      1.224979  
     142A      1.242277   143A      1.293373   144A      1.353683  
     145A      1.357147   146A      1.432548   147A      1.505708  
     148A      1.513807   149A      1.536617   150A      1.537543  
     151A      1.538482   152A      1.553881   153A      1.582836  
     154A      1.601805   155A      1.615982   156A      1.627892  
     157A      1.636718   158A      1.639157   159A      1.642830  
     160A      1.678815   161A      1.715998   162A      1.717601  
     163A      1.722949   164A      1.732342   165A      1.744480  
     166A      1.781644   167A      1.789600   168A      1.810763  
     169A      1.810859   170A      1.853831   171A      1.860382  
     172A      1.877675   173A      1.883960   174A      1.911417  
     175A      1.933943   176A      1.948582   177A      1.952785  
     178A      1.956137   179A      1.957562   180A      1.971315  
     181A      1.976363   182A      1.980654   183A      1.995637  
     184A      2.021042   185A      2.042142   186A      2.057987  
     187A      2.104438   188A      2.111947   189A      2.118285  
     190A      2.141477   191A      2.163211   192A      2.195026  
     193A      2.208411   194A      2.215468   195A      2.227209  
     196A      2.239324   197A      2.267999   198A      2.279974  
     199A      2.298592   200A      2.362691   201A      2.363748  
     202A      2.379844   203A      2.389277   204A      2.415302  
     205A      2.437534   206A      2.456776   207A      2.468422  
     208A      2.475928   209A      2.479366   210A      2.541552  
     211A      2.623208   212A      2.690664   213A      2.691685  
     214A      2.797579   215A      2.806894   216A      2.815826  
     217A      2.817592   218A      2.831360   219A      2.979439  
     220A      2.985820   221A      2.988839   222A      3.148169  
     223A      3.150574   224A      3.161784   225A      3.176247  
     226A      3.203150   227A      3.352444   228A      3.388629  
     229A      3.568455   230A      3.568952   231A      3.894747  
     232A      4.862816   233A      6.843581   234A     20.382637  
     235A     20.813917   236A     21.134133   237A    138.025884  

    Final Occupation by Irrep:
              A 
    DOCC [    21 ]

  @DF-RHF Final Energy:  -230.72856877275737

   => Energetics <=

    Nuclear Repulsion Energy =            203.6538916079341277
    One-Electron Energy =                -713.5652516205126403
    Two-Electron Energy =                 279.1827912398211424
    Total Energy =                       -230.7285687727573418

Computation Completed


Properties will be evaluated at   0.000000,   0.000000,   0.000000 [a0]

Properties computed using the SCF density matrix

  Nuclear Dipole Moment: [e a0]
     X:     0.0000      Y:    -0.0000      Z:    89.0601

  Electronic Dipole Moment: [e a0]
     X:     0.0000      Y:    -0.0000      Z:   -89.0580

  Dipole Moment: [e a0]
     X:     0.0000      Y:    -0.0000      Z:     0.0020     Total:     0.0020

  Dipole Moment: [D]
     X:     0.0000      Y:    -0.0000      Z:     0.0051     Total:     0.0051


*** tstop() called on node51.bme.utexas.edu at Mon Sep  9 20:50:26 2019
Module time:
	user time   =      14.25 seconds =       0.24 minutes
	system time =       0.51 seconds =       0.01 minutes
	total time  =          4 seconds =       0.07 minutes
Total time:
	user time   =      42.57 seconds =       0.71 minutes
	system time =       1.34 seconds =       0.02 minutes
	total time  =         13 seconds =       0.22 minutes

  //>>>>>>>>>>>>>>>>>>>>>>>>>>>>>>>>>>>//
  //            Monomer B HF           //
  //<<<<<<<<<<<<<<<<<<<<<<<<<<<<<<<<<<<//


*** tstart() called on node51.bme.utexas.edu
*** at Mon Sep  9 20:50:26 2019

   => Loading Basis Set <=

    Name: AUG-CC-PVDZ
    Role: ORBITAL
    Keyword: BASIS
    atoms 1-6         entry C          line   178 file /home/xy3866/psi4conda/share/psi4/basis/aug-cc-pvdz.gbs 
    atoms 7-12, 14-15 entry H          line    36 file /home/xy3866/psi4conda/share/psi4/basis/aug-cc-pvdz.gbs 
    atoms 13          entry S          line   698 file /home/xy3866/psi4conda/share/psi4/basis/aug-cc-pvdz.gbs 


         ---------------------------------------------------------
                                   SCF
               by Justin Turney, Rob Parrish, Andy Simmonett
                          and Daniel G. A. Smith
                              RHF Reference
                        4 Threads,  30517 MiB Core
         ---------------------------------------------------------

  ==> Geometry <==

    Molecular point group: c1
    Full point group: C2v

    Geometry (in Angstrom), charge = 0, multiplicity = 1:

       Center              X                  Y                   Z               Mass       
    ------------   -----------------  -----------------  -----------------  -----------------
      Gh(C)           0.000000000000    -1.393658000000     1.122759518766    12.000000000000
      Gh(C)           1.207737000000    -0.696816000000     1.121534518766    12.000000000000
      Gh(C)           1.207737000000     0.696816000000     1.121534518766    12.000000000000
      Gh(C)           0.000000000000     1.393658000000     1.122759518766    12.000000000000
      Gh(C)          -1.207737000000     0.696816000000     1.121534518766    12.000000000000
      Gh(C)          -1.207737000000    -0.696816000000     1.121534518766    12.000000000000
      Gh(H)           0.000000000000    -2.475320000000     1.128033518766     1.007825032230
      Gh(H)           2.144314000000    -1.237314000000     1.120635518766     1.007825032230
      Gh(H)           2.144314000000     1.237314000000     1.120635518766     1.007825032230
      Gh(H)           0.000000000000     2.475320000000     1.128033518766     1.007825032230
      Gh(H)          -2.144314000000     1.237314000000     1.120635518766     1.007825032230
      Gh(H)          -2.144314000000    -1.237314000000     1.120635518766     1.007825032230
         S            0.000000000000     0.000000000000    -2.632068481234    31.972071174400
         H            0.000000000000     0.954437000000    -1.696000481234     1.007825032230
         H            0.000000000000    -0.954437000000    -1.696000481234     1.007825032230

  Running in c1 symmetry.

  Rotational constants: A =      0.09427  B =      0.04071  C =      0.04054 [cm^-1]
  Rotational constants: A =   2826.03195  B =   1220.42223  C =   1215.34765 [MHz]
  Nuclear repulsion =   12.944044801570227

  Charge       = 0
  Multiplicity = 1
  Electrons    = 18
  Nalpha       = 9
  Nbeta        = 9

  ==> Algorithm <==

  SCF Algorithm Type is DF.
  DIIS enabled.
  MOM disabled.
  Fractional occupation disabled.
  Guess Type is SAD.
  Energy threshold   = 1.00e-08
  Density threshold  = 1.00e-08
  Integral threshold = 0.00e+00

  ==> Primary Basis <==

  Basis Set: AUG-CC-PVDZ
    Blend: AUG-CC-PVDZ
    Number of shells: 105
    Number of basis function: 237
    Number of Cartesian functions: 251
    Spherical Harmonics?: true
    Max angular momentum: 2

   => Loading Basis Set <=

    Name: (AUG-CC-PVDZ AUX)
    Role: JKFIT
    Keyword: DF_BASIS_SCF
    atoms 1-6         entry C          line   154 file /home/xy3866/psi4conda/share/psi4/basis/aug-cc-pvdz-jkfit.gbs 
    atoms 7-12, 14-15 entry H          line    70 file /home/xy3866/psi4conda/share/psi4/basis/aug-cc-pvdz-jkfit.gbs 
    atoms 13          entry S          line   690 file /home/xy3866/psi4conda/share/psi4/basis/aug-cc-pvdz-jkfit.gbs 

  ==> Pre-Iterations <==

   -------------------------------------------------------
    Irrep   Nso     Nmo     Nalpha   Nbeta   Ndocc  Nsocc
   -------------------------------------------------------
     A        237     237       0       0       0       0
   -------------------------------------------------------
    Total     237     237       9       9       9       0
   -------------------------------------------------------

  ==> Integral Setup <==

  ==> DiskDFJK: Density-Fitted J/K Matrices <==

    J tasked:                  Yes
    K tasked:                  Yes
    wK tasked:                  No
    OpenMP threads:              4
    Integrals threads:           4
    Memory [MiB]:            22888
    Algorithm:                Core
    Integral Cache:           LOAD
    Schwarz Cutoff:          1E-12
    Fitting Condition:       1E-10

   => Auxiliary Basis Set <=

  Basis Set: (AUG-CC-PVDZ AUX)
    Blend: AUG-CC-PVDZ-JKFIT
    Number of shells: 304
    Number of basis function: 900
    Number of Cartesian functions: 1036
    Spherical Harmonics?: true
    Max angular momentum: 3

  Minimum eigenvalue in the overlap matrix is 2.3316239659E-06.
  Using Symmetric Orthogonalization.

  SCF Guess: Superposition of Atomic Densities via on-the-fly atomic UHF.

  ==> Iterations <==

                           Total Energy        Delta E     RMS |[F,P]|

   @DF-RHF iter SAD:  -398.41713707438441   -3.98417e+02   0.00000e+00 
   @DF-RHF iter   1:  -398.66626831124779   -2.49131e-01   7.96830e-04 DIIS
   @DF-RHF iter   2:  -398.69424353116705   -2.79752e-02   2.79729e-04 DIIS
   @DF-RHF iter   3:  -398.69744579710721   -3.20227e-03   7.42203e-05 DIIS
   @DF-RHF iter   4:  -398.69799651031491   -5.50713e-04   1.36801e-05 DIIS
   @DF-RHF iter   5:  -398.69801695566139   -2.04453e-05   1.91632e-06 DIIS
   @DF-RHF iter   6:  -398.69801733109097   -3.75430e-07   5.10753e-07 DIIS
   @DF-RHF iter   7:  -398.69801735836694   -2.72760e-08   1.26257e-07 DIIS
   @DF-RHF iter   8:  -398.69801736002631   -1.65937e-09   1.65695e-08 DIIS
   @DF-RHF iter   9:  -398.69801736005439   -2.80806e-11   3.02383e-09 DIIS
  Energy and wave function converged.


  ==> Post-Iterations <==

    Orbital Energies [Eh]
    ---------------------

    Doubly Occupied:                                                      

       1A    -91.971187     2A     -8.973148     3A     -6.655212  
       4A     -6.654206     5A     -6.651712     6A     -0.985198  
       7A     -0.587587     8A     -0.503765     9A     -0.384856  

    Virtual:                                                              

      10A      0.018935    11A      0.035135    12A      0.037256  
      13A      0.052883    14A      0.056024    15A      0.056319  
      16A      0.074471    17A      0.076500    18A      0.081837  
      19A      0.105058    20A      0.105706    21A      0.111776  
      22A      0.119872    23A      0.120856    24A      0.139873  
      25A      0.143270    26A      0.143777    27A      0.148236  
      28A      0.151544    29A      0.151780    30A      0.151878  
      31A      0.163135    32A      0.174218    33A      0.181360  
      34A      0.187343    35A      0.187720    36A      0.189837  
      37A      0.192733    38A      0.204759    39A      0.205193  
      40A      0.223960    41A      0.233218    42A      0.253831  
      43A      0.257053    44A      0.268737    45A      0.273901  
      46A      0.282866    47A      0.298025    48A      0.307210  
      49A      0.330368    50A      0.333816    51A      0.344068  
      52A      0.354747    53A      0.367636    54A      0.396052  
      55A      0.396148    56A      0.406754    57A      0.416317  
      58A      0.419951    59A      0.426640    60A      0.427847  
      61A      0.438631    62A      0.447223    63A      0.451248  
      64A      0.462151    65A      0.465205    66A      0.471414  
      67A      0.471501    68A      0.480884    69A      0.483202  
      70A      0.515546    71A      0.524465    72A      0.524778  
      73A      0.531746    74A      0.542795    75A      0.545926  
      76A      0.558435    77A      0.585690    78A      0.588000  
      79A      0.599414    80A      0.603427    81A      0.621358  
      82A      0.632637    83A      0.642396    84A      0.654144  
      85A      0.662716    86A      0.674779    87A      0.687550  
      88A      0.692194    89A      0.693936    90A      0.718092  
      91A      0.728581    92A      0.743549    93A      0.752277  
      94A      0.779639    95A      0.781923    96A      0.784099  
      97A      0.802563    98A      0.803497    99A      0.832507  
     100A      0.848248   101A      0.852792   102A      0.874744  
     103A      0.876840   104A      0.881892   105A      0.888003  
     106A      0.891505   107A      0.896400   108A      0.899210  
     109A      0.900961   110A      0.914218   111A      0.915015  
     112A      0.942030   113A      0.942318   114A      0.964591  
     115A      1.004248   116A      1.005509   117A      1.014218  
     118A      1.025933   119A      1.040782   120A      1.046422  
     121A      1.056870   122A      1.060851   123A      1.106921  
     124A      1.109059   125A      1.112507   126A      1.117878  
     127A      1.122447   128A      1.154745   129A      1.212787  
     130A      1.218613   131A      1.227199   132A      1.241850  
     133A      1.243727   134A      1.258640   135A      1.262303  
     136A      1.303709   137A      1.378547   138A      1.396998  
     139A      1.397181   140A      1.476432   141A      1.476576  
     142A      1.481350   143A      1.482643   144A      1.525138  
     145A      1.661551   146A      1.760691   147A      1.808517  
     148A      1.921046   149A      1.926118   150A      1.943516  
     151A      2.047692   152A      2.060692   153A      2.130232  
     154A      2.133015   155A      2.134630   156A      2.136895  
     157A      2.196257   158A      2.208115   159A      2.218092  
     160A      2.219157   161A      2.222869   162A      2.235695  
     163A      2.271963   164A      2.280780   165A      2.292958  
     166A      2.301117   167A      2.314667   168A      2.316494  
     169A      2.317499   170A      2.320632   171A      2.362644  
     172A      2.433562   173A      2.455029   174A      2.488512  
     175A      2.496175   176A      2.496383   177A      2.506341  
     178A      2.530754   179A      2.538769   180A      2.553986  
     181A      2.600554   182A      2.618907   183A      2.639785  
     184A      2.649014   185A      2.656086   186A      2.665440  
     187A      2.679722   188A      2.686498   189A      2.737832  
     190A      2.747106   191A      2.852532   192A      2.858648  
     193A      2.859777   194A      2.867514   195A      2.872479  
     196A      2.882306   197A      2.882544   198A      2.942283  
     199A      2.952501   200A      3.201448   201A      3.241415  
     202A      3.252336   203A      3.330311   204A      3.395288  
     205A      3.409600   206A      3.413133   207A      3.418581  
     208A      3.437679   209A      3.463474   210A      3.472882  
     211A      3.481364   212A      3.516310   213A      3.536140  
     214A      3.716861   215A      3.936510   216A      3.958628  
     217A      3.973705   218A      3.977665   219A      4.100384  
     220A      4.374488   221A      4.384177   222A      4.663026  
     223A      4.839794   224A      4.841246   225A      5.307811  
     226A      5.447742   227A      5.449625   228A      5.466399  
     229A      5.468886   230A      5.641542   231A      6.101329  
     232A     17.987625   233A     18.380413   234A     18.392851  
     235A     18.996205   236A     18.997974   237A     20.700103  

    Final Occupation by Irrep:
              A 
    DOCC [     9 ]

  @DF-RHF Final Energy:  -398.69801736005439

   => Energetics <=

    Nuclear Repulsion Energy =             12.9440448015702270
    One-Electron Energy =                -576.5503801102539683
    Two-Electron Energy =                 164.9083179486293034
    Total Energy =                       -398.6980173600543935

Computation Completed


Properties will be evaluated at   0.000000,   0.000000,   0.000000 [a0]

Properties computed using the SCF density matrix

  Nuclear Dipole Moment: [e a0]
     X:     0.0000      Y:     0.0000      Z:   -85.9922

  Electronic Dipole Moment: [e a0]
     X:    -0.0000      Y:    -0.0000      Z:    86.4348

  Dipole Moment: [e a0]
     X:    -0.0000      Y:    -0.0000      Z:     0.4426     Total:     0.4426

  Dipole Moment: [D]
     X:    -0.0000      Y:    -0.0000      Z:     1.1251     Total:     1.1251


*** tstop() called on node51.bme.utexas.edu at Mon Sep  9 20:50:30 2019
Module time:
	user time   =      12.59 seconds =       0.21 minutes
	system time =       0.41 seconds =       0.01 minutes
	total time  =          4 seconds =       0.07 minutes
Total time:
	user time   =      55.19 seconds =       0.92 minutes
	system time =       1.75 seconds =       0.03 minutes
	total time  =         17 seconds =       0.28 minutes
  Constructing Basis Sets for SAPT...

   => Loading Basis Set <=

    Name: (AUG-CC-PVDZ AUX)
    Role: RIFIT
    Keyword: DF_BASIS_SAPT
    atoms 1-6         entry C          line   112 file /home/xy3866/psi4conda/share/psi4/basis/aug-cc-pvdz-ri.gbs 
    atoms 7-12, 14-15 entry H          line    30 file /home/xy3866/psi4conda/share/psi4/basis/aug-cc-pvdz-ri.gbs 
    atoms 13          entry S          line   516 file /home/xy3866/psi4conda/share/psi4/basis/aug-cc-pvdz-ri.gbs 


  //>>>>>>>>>>>>>>>>>>>>>>>>>>>>>>>>>>>//
  //               SAPT2+              //
  //<<<<<<<<<<<<<<<<<<<<<<<<<<<<<<<<<<<//


*** tstart() called on node51.bme.utexas.edu
*** at Mon Sep  9 20:50:30 2019

        SAPT2+  
    Ed Hohenstein
     6 June 2009

      Orbital Information
  --------------------------
    NSO        =       237
    NMO        =       237
    NRI        =       708
    NOCC A     =        21
    NOCC B     =         9
    FOCC A     =         6
    FOCC B     =         5
    NVIR A     =       216
    NVIR B     =       228

    Estimated memory usage: 844.6 MB

    Natural Orbital Cutoff:   1.000E-06
    Disp(T3) Truncation:            Yes
    CCD (vv|vv) Truncation:         Yes
    MBPT T2 Truncation:             Yes

    Monomer A: 49 virtual orbitals dropped
    Monomer B: 184 virtual orbitals dropped

    Elst10,r            =    -0.004461639141 [Eh]
    Exch10 (S^2)        =     0.007261370317 [Eh]
    Exch10              =     0.007270646034 [Eh]
    Ind20,r (A<-B)      =    -0.001255966530 [Eh]
    Ind20,r (B<-A)      =    -0.000914009234 [Eh]
    Ind20,r             =    -0.002169975764 [Eh]
    Exch-Ind20,r (A<-B) =     0.000814013196 [Eh]
    Exch-Ind20,r (B<-A) =     0.000765657984 [Eh]
    Exch-Ind20,r        =     0.001579671180 [Eh]
    Disp20              =    -0.008049531485 [Eh]
    Disp20 (NO)         =    -0.007549975121 [Eh]
    Exch-Disp20         =     0.000875668605 [Eh]
    Elst12,r            =     0.000223680409 [Eh]
    Exch11              =     0.000420701030 [Eh]
    Exch12              =     0.000107135894 [Eh]
    Ind22               =    -0.000159002629 [Eh]
    Disp21              =     0.001865551246 [Eh]
    Disp22 (SDQ)        =     0.000204396455 [Eh]

    (i =   1 of   4)          9 seconds
    (i =   2 of   4)         19 seconds
    (i =   3 of   4)         28 seconds
    (i =   4 of   4)         38 seconds

    Disp220 (T)         =    -0.000798621853 [Eh]

    (i =   1 of  15)          0 seconds
    (i =   2 of  15)          0 seconds
    (i =   3 of  15)          1 seconds
    (i =   4 of  15)          1 seconds
    (i =   5 of  15)          2 seconds
    (i =   6 of  15)          2 seconds
    (i =   7 of  15)          2 seconds
    (i =   8 of  15)          3 seconds
    (i =   9 of  15)          3 seconds
    (i =  10 of  15)          4 seconds
    (i =  11 of  15)          4 seconds
    (i =  12 of  15)          4 seconds
    (i =  13 of  15)          5 seconds
    (i =  14 of  15)          5 seconds
    (i =  15 of  15)          5 seconds

    Disp202 (T)         =    -0.000516605275 [Eh]

    Disp22 (T)          =    -0.001315227128 [Eh]

    Est. Disp220 (T)    =    -0.000851463964 [Eh]
    Est. Disp202 (T)    =    -0.000550787302 [Eh]

    Est. Disp22 (T)     =    -0.001402251266 [Eh]

    SAPT Results 
  --------------------------------------------------------------------------------------------------------
    Electrostatics                 -4.23795873 [mEh]      -2.65935925 [kcal/mol]     -11.12675912 [kJ/mol]
      Elst10,r                     -4.46163914 [mEh]      -2.79972083 [kcal/mol]     -11.71403195 [kJ/mol]
      Elst12,r                      0.22368041 [mEh]       0.14036158 [kcal/mol]       0.58727283 [kJ/mol]

    Exchange                        7.79848296 [mEh]       4.89362194 [kcal/mol]      20.47491419 [kJ/mol]
      Exch10                        7.27064603 [mEh]       4.56239927 [kcal/mol]      19.08907853 [kJ/mol]
      Exch10(S^2)                   7.26137032 [mEh]       4.55657867 [kcal/mol]      19.06472514 [kJ/mol]
      Exch11(S^2)                   0.42070103 [mEh]       0.26399388 [kcal/mol]       1.10455040 [kJ/mol]
      Exch12(S^2)                   0.10713589 [mEh]       0.06722879 [kcal/mol]       0.28128525 [kJ/mol]

    Induction                      -1.49183536 [mEh]      -0.93614082 [kcal/mol]      -3.91681321 [kJ/mol]
      Ind20,r                      -2.16997576 [mEh]      -1.36168035 [kcal/mol]      -5.69727058 [kJ/mol]
      Ind22                        -0.15900263 [mEh]      -0.09977566 [kcal/mol]      -0.41746134 [kJ/mol]
      Exch-Ind20,r                  1.57967118 [mEh]       0.99125863 [kcal/mol]       4.14742611 [kJ/mol]
      Exch-Ind22                    0.11574870 [mEh]       0.07263340 [kcal/mol]       0.30389817 [kJ/mol]
      delta HF,r (2)               -0.85827685 [mEh]      -0.53857685 [kcal/mol]      -2.25340556 [kJ/mol]

    Dispersion                     -6.50616645 [mEh]      -4.08268108 [kcal/mol]     -17.08193765 [kJ/mol]
      Disp20                       -8.04953149 [mEh]      -5.05115727 [kcal/mol]     -21.13404200 [kJ/mol]
      Disp21                        1.86555125 [mEh]       1.17065108 [kcal/mol]       4.89800412 [kJ/mol]
      Disp22 (SDQ)                  0.20439645 [mEh]       0.12826071 [kcal/mol]       0.53664282 [kJ/mol]
      Disp22 (T)                   -1.31522713 [mEh]      -0.82531748 [kcal/mol]      -3.45312835 [kJ/mol]
      Est. Disp22 (T)              -1.40225127 [mEh]      -0.87992595 [kcal/mol]      -3.68161019 [kJ/mol]
      Exch-Disp20                   0.87566861 [mEh]       0.54949035 [kcal/mol]       2.29906761 [kJ/mol]

  Total HF                          1.36042546 [mEh]       0.85367986 [kcal/mol]       3.57179655 [kJ/mol]
  Total SAPT0                      -5.81343742 [mEh]      -3.64798706 [kcal/mol]     -15.26317784 [kJ/mol]
  Total SAPT2                      -5.10517402 [mEh]      -3.20354506 [kcal/mol]     -13.40363253 [kJ/mol]
  Total SAPT2+                     -4.43747758 [mEh]      -2.78455922 [kcal/mol]     -11.65059579 [kJ/mol]

  Special recipe for scaled SAPT0 (see Manual):
    Electrostatics sSAPT0          -4.46163914 [mEh]      -2.79972083 [kcal/mol]     -11.71403195 [kJ/mol]
    Exchange sSAPT0                 7.27064603 [mEh]       4.56239927 [kcal/mol]      19.08907853 [kJ/mol]
    Induction sSAPT0               -1.44252005 [mEh]      -0.90519500 [kcal/mol]      -3.78733588 [kJ/mol]
    Dispersion sSAPT0              -7.17050284 [mEh]      -4.49955846 [kcal/mol]     -18.82615261 [kJ/mol]
  Total sSAPT0                     -5.80401600 [mEh]      -3.64207503 [kcal/mol]     -15.23844191 [kJ/mol]
  --------------------------------------------------------------------------------------------------------

*** tstop() called on node51.bme.utexas.edu at Mon Sep  9 20:52:18 2019
Module time:
	user time   =     407.30 seconds =       6.79 minutes
	system time =      16.09 seconds =       0.27 minutes
	total time  =        108 seconds =       1.80 minutes
Total time:
	user time   =     463.04 seconds =       7.72 minutes
	system time =      17.87 seconds =       0.30 minutes
	total time  =        125 seconds =       2.08 minutes

    Psi4 stopped on: Monday, 09 September 2019 08:52PM
    Psi4 wall time for execution: 0:02:04.93

*** Psi4 exiting successfully. Buy a developer a beer!
