
    -----------------------------------------------------------------------
          Psi4: An Open-Source Ab Initio Electronic Structure Package
                               Psi4 1.3.2 release

                         Git: Rev {HEAD} ecbda83 


    R. M. Parrish, L. A. Burns, D. G. A. Smith, A. C. Simmonett,
    A. E. DePrince III, E. G. Hohenstein, U. Bozkaya, A. Yu. Sokolov,
    R. Di Remigio, R. M. Richard, J. F. Gonthier, A. M. James,
    H. R. McAlexander, A. Kumar, M. Saitow, X. Wang, B. P. Pritchard,
    P. Verma, H. F. Schaefer III, K. Patkowski, R. A. King, E. F. Valeev,
    F. A. Evangelista, J. M. Turney, T. D. Crawford, and C. D. Sherrill,
    J. Chem. Theory Comput. 13(7) pp 3185--3197 (2017).
    (doi: 10.1021/acs.jctc.7b00174)


                         Additional Contributions by
    P. Kraus, H. Kruse, M. H. Lechner, M. C. Schieber, R. A. Shaw,
    A. Alenaizan, R. Galvelis, Z. L. Glick, S. Lehtola, and J. P. Misiewicz

    -----------------------------------------------------------------------


    Psi4 started on: Monday, 09 September 2019 08:52PM

    Process ID: 94313
    Host:       node51.bme.utexas.edu
    PSIDATADIR: /home/xy3866/psi4conda/share/psi4
    Memory:     500.0 MiB
    Threads:    4
    
  ==> Input File <==

--------------------------------------------------------------------------
#psi4
#
memory 32 gb

molecule  {
0 1
  C        0.0000000    -1.3936580     1.0640200
  C        1.2077370    -0.6968160     1.0627950
  C        1.2077370     0.6968160     1.0627950
  C        0.0000000     1.3936580     1.0640200
  C       -1.2077370     0.6968160     1.0627950
  C       -1.2077370    -0.6968160     1.0627950
  H        0.0000000    -2.4753200     1.0692940
  H        2.1443140    -1.2373140     1.0618960
  H        2.1443140     1.2373140     1.0618960
  H        0.0000000     2.4753200     1.0692940
  H       -2.1443140     1.2373140     1.0618960
  H       -2.1443140    -1.2373140     1.0618960
--
0 1
  S        0.0000000    -0.0000000    -3.0662091
  H        0.0000000     0.9544370    -2.1301411
  H        0.0000000    -0.9544370    -2.1301411
units angstrom
no_reorient  #important for SAPT in psi4, default
symmetry c1  #important for SAPT in psi4, default
}

set {
basis aug-cc-pVDZ
scf_type DF
freeze_core True
}
energy('sapt2+')
--------------------------------------------------------------------------

  Memory set to  29.802 GiB by Python driver.

  //>>>>>>>>>>>>>>>>>>>>>>>>>>>>>>>>>>>//
  //              Dimer HF             //
  //<<<<<<<<<<<<<<<<<<<<<<<<<<<<<<<<<<<//


*** tstart() called on node51.bme.utexas.edu
*** at Mon Sep  9 20:52:30 2019

   => Loading Basis Set <=

    Name: AUG-CC-PVDZ
    Role: ORBITAL
    Keyword: BASIS
    atoms 1-6         entry C          line   178 file /home/xy3866/psi4conda/share/psi4/basis/aug-cc-pvdz.gbs 
    atoms 7-12, 14-15 entry H          line    36 file /home/xy3866/psi4conda/share/psi4/basis/aug-cc-pvdz.gbs 
    atoms 13          entry S          line   698 file /home/xy3866/psi4conda/share/psi4/basis/aug-cc-pvdz.gbs 


         ---------------------------------------------------------
                                   SCF
               by Justin Turney, Rob Parrish, Andy Simmonett
                          and Daniel G. A. Smith
                              RHF Reference
                        4 Threads,  30517 MiB Core
         ---------------------------------------------------------

  ==> Geometry <==

    Molecular point group: c1
    Full point group: C2v

    Geometry (in Angstrom), charge = 0, multiplicity = 1:

       Center              X                  Y                   Z               Mass       
    ------------   -----------------  -----------------  -----------------  -----------------
         C            0.000000000000    -1.393658000000     1.236644156231    12.000000000000
         C            1.207737000000    -0.696816000000     1.235419156231    12.000000000000
         C            1.207737000000     0.696816000000     1.235419156231    12.000000000000
         C            0.000000000000     1.393658000000     1.236644156231    12.000000000000
         C           -1.207737000000     0.696816000000     1.235419156231    12.000000000000
         C           -1.207737000000    -0.696816000000     1.235419156231    12.000000000000
         H            0.000000000000    -2.475320000000     1.241918156231     1.007825032230
         H            2.144314000000    -1.237314000000     1.234520156231     1.007825032230
         H            2.144314000000     1.237314000000     1.234520156231     1.007825032230
         H            0.000000000000     2.475320000000     1.241918156231     1.007825032230
         H           -2.144314000000     1.237314000000     1.234520156231     1.007825032230
         H           -2.144314000000    -1.237314000000     1.234520156231     1.007825032230
         S            0.000000000000     0.000000000000    -2.893584943769    31.972071174400
         H            0.000000000000     0.954437000000    -1.957516943769     1.007825032230
         H            0.000000000000    -0.954437000000    -1.957516943769     1.007825032230

  Running in c1 symmetry.

  Rotational constants: A =      0.09427  B =      0.03489  C =      0.03476 [cm^-1]
  Rotational constants: A =   2826.03195  B =   1045.92811  C =   1042.19869 [MHz]
  Nuclear repulsion =  309.264444580084728

  Charge       = 0
  Multiplicity = 1
  Electrons    = 60
  Nalpha       = 30
  Nbeta        = 30

  ==> Algorithm <==

  SCF Algorithm Type is DF.
  DIIS enabled.
  MOM disabled.
  Fractional occupation disabled.
  Guess Type is SAD.
  Energy threshold   = 1.00e-08
  Density threshold  = 1.00e-08
  Integral threshold = 0.00e+00

  ==> Primary Basis <==

  Basis Set: AUG-CC-PVDZ
    Blend: AUG-CC-PVDZ
    Number of shells: 105
    Number of basis function: 237
    Number of Cartesian functions: 251
    Spherical Harmonics?: true
    Max angular momentum: 2

   => Loading Basis Set <=

    Name: (AUG-CC-PVDZ AUX)
    Role: JKFIT
    Keyword: DF_BASIS_SCF
    atoms 1-6         entry C          line   154 file /home/xy3866/psi4conda/share/psi4/basis/aug-cc-pvdz-jkfit.gbs 
    atoms 7-12, 14-15 entry H          line    70 file /home/xy3866/psi4conda/share/psi4/basis/aug-cc-pvdz-jkfit.gbs 
    atoms 13          entry S          line   690 file /home/xy3866/psi4conda/share/psi4/basis/aug-cc-pvdz-jkfit.gbs 

  ==> Pre-Iterations <==

   -------------------------------------------------------
    Irrep   Nso     Nmo     Nalpha   Nbeta   Ndocc  Nsocc
   -------------------------------------------------------
     A        237     237       0       0       0       0
   -------------------------------------------------------
    Total     237     237      30      30      30       0
   -------------------------------------------------------

  ==> Integral Setup <==

  ==> DiskDFJK: Density-Fitted J/K Matrices <==

    J tasked:                  Yes
    K tasked:                  Yes
    wK tasked:                  No
    OpenMP threads:              4
    Integrals threads:           4
    Memory [MiB]:            22888
    Algorithm:                Core
    Integral Cache:           SAVE
    Schwarz Cutoff:          1E-12
    Fitting Condition:       1E-10

   => Auxiliary Basis Set <=

  Basis Set: (AUG-CC-PVDZ AUX)
    Blend: AUG-CC-PVDZ-JKFIT
    Number of shells: 304
    Number of basis function: 900
    Number of Cartesian functions: 1036
    Spherical Harmonics?: true
    Max angular momentum: 3

  Minimum eigenvalue in the overlap matrix is 2.3316467845E-06.
  Using Symmetric Orthogonalization.

  SCF Guess: Superposition of Atomic Densities via on-the-fly atomic UHF.

  ==> Iterations <==

                           Total Energy        Delta E     RMS |[F,P]|

   @DF-RHF iter SAD:  -628.62201100544826   -6.28622e+02   0.00000e+00 
   @DF-RHF iter   1:  -629.22500259853609   -6.02992e-01   2.29147e-03 DIIS
   @DF-RHF iter   2:  -629.39008604627315   -1.65083e-01   1.06553e-03 DIIS
   @DF-RHF iter   3:  -629.42463513809150   -3.45491e-02   1.98556e-04 DIIS
   @DF-RHF iter   4:  -629.42676160381052   -2.12647e-03   3.99043e-05 DIIS
   @DF-RHF iter   5:  -629.42685900561605   -9.74018e-05   1.07054e-05 DIIS
   @DF-RHF iter   6:  -629.42686821584243   -9.21023e-06   2.65135e-06 DIIS
   @DF-RHF iter   7:  -629.42686885942612   -6.43584e-07   7.06291e-07 DIIS
   @DF-RHF iter   8:  -629.42686890033474   -4.09086e-08   1.66392e-07 DIIS
   @DF-RHF iter   9:  -629.42686890261086   -2.27612e-09   3.42815e-08 DIIS
   @DF-RHF iter  10:  -629.42686890271330   -1.02432e-10   7.70485e-09 DIIS
  Energy and wave function converged.


  ==> Post-Iterations <==

    Orbital Energies [Eh]
    ---------------------

    Doubly Occupied:                                                      

       1A    -91.957423     2A    -11.249469     3A    -11.249031  
       4A    -11.248768     5A    -11.247783     6A    -11.247549  
       7A    -11.247065     8A     -8.959667     9A     -6.641776  
      10A     -6.640754    11A     -6.638320    12A     -1.160559  
      13A     -1.024617    14A     -1.024561    15A     -0.972275  
      16A     -0.833025    17A     -0.832770    18A     -0.717456  
      19A     -0.651718    20A     -0.626850    21A     -0.595606  
      22A     -0.595601    23A     -0.575007    24A     -0.514389  
      25A     -0.501750    26A     -0.501563    27A     -0.486518  
      28A     -0.373655    29A     -0.344512    30A     -0.343057  

    Virtual:                                                              

      31A      0.032777    32A      0.040018    33A      0.041567  
      34A      0.055177    35A      0.055593    36A      0.058689  
      37A      0.074676    38A      0.078221    39A      0.099410  
      40A      0.100558    41A      0.128276    42A      0.131424  
      43A      0.131791    44A      0.137838    45A      0.141214  
      46A      0.142285    47A      0.146961    48A      0.149642  
      49A      0.149776    50A      0.156966    51A      0.160143  
      52A      0.164926    53A      0.181766    54A      0.185894  
      55A      0.187276    56A      0.187892    57A      0.188007  
      58A      0.188103    59A      0.190372    60A      0.190572  
      61A      0.214859    62A      0.233798    63A      0.239307  
      64A      0.262992    65A      0.264615    66A      0.287167  
      67A      0.292902    68A      0.304598    69A      0.311396  
      70A      0.328928    71A      0.338810    72A      0.339488  
      73A      0.343800    74A      0.360395    75A      0.374572  
      76A      0.376249    77A      0.380296    78A      0.382563  
      79A      0.397714    80A      0.398927    81A      0.404306  
      82A      0.422247    83A      0.427454    84A      0.436980  
      85A      0.438605    86A      0.439308    87A      0.446053  
      88A      0.484173    89A      0.500903    90A      0.509827  
      91A      0.509838    92A      0.510894    93A      0.516967  
      94A      0.526073    95A      0.551940    96A      0.564545  
      97A      0.568736    98A      0.570156    99A      0.585664  
     100A      0.587428   101A      0.590651   102A      0.594414  
     103A      0.599597   104A      0.600727   105A      0.605737  
     106A      0.625348   107A      0.642395   108A      0.668532  
     109A      0.672212   110A      0.684346   111A      0.687365  
     112A      0.690794   113A      0.693037   114A      0.698949  
     115A      0.703352   116A      0.704296   117A      0.710060  
     118A      0.723633   119A      0.757724   120A      0.770070  
     121A      0.776202   122A      0.777762   123A      0.778839  
     124A      0.783908   125A      0.852394   126A      0.853749  
     127A      0.854567   128A      0.858002   129A      0.887136  
     130A      0.891832   131A      0.913625   132A      0.917070  
     133A      0.928864   134A      0.937826   135A      0.938178  
     136A      0.939724   137A      0.957418   138A      0.969640  
     139A      0.975010   140A      0.975228   141A      0.994998  
     142A      1.015846   143A      1.019303   144A      1.073441  
     145A      1.086224   146A      1.087088   147A      1.096757  
     148A      1.099495   149A      1.136132   150A      1.147578  
     151A      1.192652   152A      1.200574   153A      1.204483  
     154A      1.216672   155A      1.232586   156A      1.269911  
     157A      1.307190   158A      1.349422   159A      1.350844  
     160A      1.421416   161A      1.488996   162A      1.495981  
     163A      1.518677   164A      1.528365   165A      1.531826  
     166A      1.533266   167A      1.535020   168A      1.578274  
     169A      1.601703   170A      1.610203   171A      1.621389  
     172A      1.632712   173A      1.633154   174A      1.648682  
     175A      1.677226   176A      1.706887   177A      1.709889  
     178A      1.714255   179A      1.726748   180A      1.765149  
     181A      1.785701   182A      1.788409   183A      1.796848  
     184A      1.852458   185A      1.872408   186A      1.896258  
     187A      1.927277   188A      1.931913   189A      1.948524  
     190A      1.957074   191A      1.958472   192A      1.966175  
     193A      1.968901   194A      1.970354   195A      1.978606  
     196A      1.985020   197A      2.023585   198A      2.098199  
     199A      2.104953   200A      2.108131   201A      2.133601  
     202A      2.148011   203A      2.174999   204A      2.199423  
     205A      2.205199   206A      2.217999   207A      2.227078  
     208A      2.260862   209A      2.268664   210A      2.291377  
     211A      2.357092   212A      2.370073   213A      2.373032  
     214A      2.404378   215A      2.437323   216A      2.449038  
     217A      2.467533   218A      2.524846   219A      2.615731  
     220A      2.678184   221A      2.789109   222A      2.791092  
     223A      2.797961   224A      2.806905   225A      2.808792  
     226A      2.969504   227A      2.975441   228A      2.976811  
     229A      3.140483   230A      3.142144   231A      3.153476  
     232A      3.162192   233A      3.381784   234A      3.558841  
     235A      3.561213   236A      3.885322   237A      4.849951  

    Final Occupation by Irrep:
              A 
    DOCC [    30 ]

  @DF-RHF Final Energy:  -629.42686890271330

   => Energetics <=

    Nuclear Repulsion Energy =            309.2644445800847279
    One-Electron Energy =               -1475.3764367343114827
    Two-Electron Energy =                 536.6851232515134598
    Total Energy =                       -629.4268689027132950

Computation Completed


Properties will be evaluated at   0.000000,   0.000000,   0.000000 [a0]

Properties computed using the SCF density matrix

  Nuclear Dipole Moment: [e a0]
     X:     0.0000      Y:    -0.0000      Z:     3.2112

  Electronic Dipole Moment: [e a0]
     X:     0.0000      Y:    -0.0000      Z:    -2.6063

  Dipole Moment: [e a0]
     X:     0.0000      Y:    -0.0000      Z:     0.6049     Total:     0.6049

  Dipole Moment: [D]
     X:     0.0000      Y:    -0.0000      Z:     1.5375     Total:     1.5375


*** tstop() called on node51.bme.utexas.edu at Mon Sep  9 20:52:38 2019
Module time:
	user time   =      27.82 seconds =       0.46 minutes
	system time =       0.66 seconds =       0.01 minutes
	total time  =          8 seconds =       0.13 minutes
Total time:
	user time   =      27.82 seconds =       0.46 minutes
	system time =       0.66 seconds =       0.01 minutes
	total time  =          8 seconds =       0.13 minutes

  //>>>>>>>>>>>>>>>>>>>>>>>>>>>>>>>>>>>//
  //            Monomer A HF           //
  //<<<<<<<<<<<<<<<<<<<<<<<<<<<<<<<<<<<//


*** tstart() called on node51.bme.utexas.edu
*** at Mon Sep  9 20:52:38 2019

   => Loading Basis Set <=

    Name: AUG-CC-PVDZ
    Role: ORBITAL
    Keyword: BASIS
    atoms 1-6         entry C          line   178 file /home/xy3866/psi4conda/share/psi4/basis/aug-cc-pvdz.gbs 
    atoms 7-12, 14-15 entry H          line    36 file /home/xy3866/psi4conda/share/psi4/basis/aug-cc-pvdz.gbs 
    atoms 13          entry S          line   698 file /home/xy3866/psi4conda/share/psi4/basis/aug-cc-pvdz.gbs 


         ---------------------------------------------------------
                                   SCF
               by Justin Turney, Rob Parrish, Andy Simmonett
                          and Daniel G. A. Smith
                              RHF Reference
                        4 Threads,  30517 MiB Core
         ---------------------------------------------------------

  ==> Geometry <==

    Molecular point group: c1
    Full point group: C2v

    Geometry (in Angstrom), charge = 0, multiplicity = 1:

       Center              X                  Y                   Z               Mass       
    ------------   -----------------  -----------------  -----------------  -----------------
         C            0.000000000000    -1.393658000000     1.236644156231    12.000000000000
         C            1.207737000000    -0.696816000000     1.235419156231    12.000000000000
         C            1.207737000000     0.696816000000     1.235419156231    12.000000000000
         C            0.000000000000     1.393658000000     1.236644156231    12.000000000000
         C           -1.207737000000     0.696816000000     1.235419156231    12.000000000000
         C           -1.207737000000    -0.696816000000     1.235419156231    12.000000000000
         H            0.000000000000    -2.475320000000     1.241918156231     1.007825032230
         H            2.144314000000    -1.237314000000     1.234520156231     1.007825032230
         H            2.144314000000     1.237314000000     1.234520156231     1.007825032230
         H            0.000000000000     2.475320000000     1.241918156231     1.007825032230
         H           -2.144314000000     1.237314000000     1.234520156231     1.007825032230
         H           -2.144314000000    -1.237314000000     1.234520156231     1.007825032230
      Gh(S)           0.000000000000     0.000000000000    -2.893584943769    31.972071174400
      Gh(H)           0.000000000000     0.954437000000    -1.957516943769     1.007825032230
      Gh(H)           0.000000000000    -0.954437000000    -1.957516943769     1.007825032230

  Running in c1 symmetry.

  Rotational constants: A =      0.09427  B =      0.03489  C =      0.03476 [cm^-1]
  Rotational constants: A =   2826.03195  B =   1045.92811  C =   1042.19869 [MHz]
  Nuclear repulsion =  203.653891607934128

  Charge       = 0
  Multiplicity = 1
  Electrons    = 42
  Nalpha       = 21
  Nbeta        = 21

  ==> Algorithm <==

  SCF Algorithm Type is DF.
  DIIS enabled.
  MOM disabled.
  Fractional occupation disabled.
  Guess Type is SAD.
  Energy threshold   = 1.00e-08
  Density threshold  = 1.00e-08
  Integral threshold = 0.00e+00

  ==> Primary Basis <==

  Basis Set: AUG-CC-PVDZ
    Blend: AUG-CC-PVDZ
    Number of shells: 105
    Number of basis function: 237
    Number of Cartesian functions: 251
    Spherical Harmonics?: true
    Max angular momentum: 2

   => Loading Basis Set <=

    Name: (AUG-CC-PVDZ AUX)
    Role: JKFIT
    Keyword: DF_BASIS_SCF
    atoms 1-6         entry C          line   154 file /home/xy3866/psi4conda/share/psi4/basis/aug-cc-pvdz-jkfit.gbs 
    atoms 7-12, 14-15 entry H          line    70 file /home/xy3866/psi4conda/share/psi4/basis/aug-cc-pvdz-jkfit.gbs 
    atoms 13          entry S          line   690 file /home/xy3866/psi4conda/share/psi4/basis/aug-cc-pvdz-jkfit.gbs 

  ==> Pre-Iterations <==

   -------------------------------------------------------
    Irrep   Nso     Nmo     Nalpha   Nbeta   Ndocc  Nsocc
   -------------------------------------------------------
     A        237     237       0       0       0       0
   -------------------------------------------------------
    Total     237     237      21      21      21       0
   -------------------------------------------------------

  ==> Integral Setup <==

  ==> DiskDFJK: Density-Fitted J/K Matrices <==

    J tasked:                  Yes
    K tasked:                  Yes
    wK tasked:                  No
    OpenMP threads:              4
    Integrals threads:           4
    Memory [MiB]:            22888
    Algorithm:                Core
    Integral Cache:           LOAD
    Schwarz Cutoff:          1E-12
    Fitting Condition:       1E-10

   => Auxiliary Basis Set <=

  Basis Set: (AUG-CC-PVDZ AUX)
    Blend: AUG-CC-PVDZ-JKFIT
    Number of shells: 304
    Number of basis function: 900
    Number of Cartesian functions: 1036
    Spherical Harmonics?: true
    Max angular momentum: 3

  Minimum eigenvalue in the overlap matrix is 2.3316467845E-06.
  Using Symmetric Orthogonalization.

  SCF Guess: Superposition of Atomic Densities via on-the-fly atomic UHF.

  ==> Iterations <==

                           Total Energy        Delta E     RMS |[F,P]|

   @DF-RHF iter SAD:  -230.14552304609086   -2.30146e+02   0.00000e+00 
   @DF-RHF iter   1:  -230.55300651797759   -4.07483e-01   2.18314e-03 DIIS
   @DF-RHF iter   2:  -230.69262597322347   -1.39619e-01   1.06819e-03 DIIS
   @DF-RHF iter   3:  -230.72676110588907   -3.41351e-02   1.70206e-04 DIIS
   @DF-RHF iter   4:  -230.72820424247837   -1.44314e-03   1.82333e-05 DIIS
   @DF-RHF iter   5:  -230.72822503426568   -2.07918e-05   3.43245e-06 DIIS
   @DF-RHF iter   6:  -230.72822580501176   -7.70746e-07   3.69294e-07 DIIS
   @DF-RHF iter   7:  -230.72822581453713   -9.52537e-09   6.27877e-08 DIIS
   @DF-RHF iter   8:  -230.72822581475603   -2.18904e-10   2.56554e-08 DIIS
   @DF-RHF iter   9:  -230.72822581478846   -3.24292e-11   5.20655e-09 DIIS
  Energy and wave function converged.


  ==> Post-Iterations <==

    Orbital Energies [Eh]
    ---------------------

    Doubly Occupied:                                                      

       1A    -11.242286     2A    -11.241772     3A    -11.241681  
       4A    -11.240554     5A    -11.240461     6A    -11.239913  
       7A     -1.152917     8A     -1.017391     9A     -1.017001  
      10A     -0.825856    11A     -0.825688    12A     -0.710405  
      13A     -0.644974    14A     -0.619629    15A     -0.588821  
      16A     -0.588401    17A     -0.501743    18A     -0.494795  
      19A     -0.494697    20A     -0.336430    21A     -0.336171  

    Virtual:                                                              

      22A      0.032570    23A      0.042244    24A      0.042423  
      25A      0.048735    26A      0.057428    27A      0.057451  
      28A      0.075149    29A      0.076225    30A      0.105266  
      31A      0.107159    32A      0.107499    33A      0.117709  
      34A      0.128694    35A      0.139619    36A      0.145362  
      37A      0.145630    38A      0.146230    39A      0.152958  
      40A      0.153043    41A      0.156228    42A      0.159318  
      43A      0.167050    44A      0.176182    45A      0.184467  
      46A      0.190859    47A      0.190872    48A      0.191122  
      49A      0.194566    50A      0.195808    51A      0.196095  
      52A      0.203337    53A      0.224161    54A      0.266734  
      55A      0.289772    56A      0.299567    57A      0.300649  
      58A      0.308938    59A      0.311743    60A      0.333896  
      61A      0.345752    62A      0.352446    63A      0.353832  
      64A      0.363524    65A      0.368340    66A      0.381864  
      67A      0.387309    68A      0.387587    69A      0.395405  
      70A      0.406821    71A      0.412597    72A      0.430424  
      73A      0.430847    74A      0.442855    75A      0.442935  
      76A      0.456194    77A      0.457534    78A      0.481251  
      79A      0.485575    80A      0.488697    81A      0.515244  
      82A      0.517983    83A      0.531855    84A      0.541866  
      85A      0.544688    86A      0.567477    87A      0.572377  
      88A      0.572394    89A      0.576788    90A      0.583971  
      91A      0.592140    92A      0.594932    93A      0.595665  
      94A      0.603648    95A      0.616828    96A      0.626466  
      97A      0.641169    98A      0.643971    99A      0.648912  
     100A      0.668242   101A      0.686925   102A      0.693451  
     103A      0.697377   104A      0.697836   105A      0.698195  
     106A      0.714671   107A      0.722113   108A      0.730461  
     109A      0.734540   110A      0.753821   111A      0.765193  
     112A      0.769128   113A      0.778949   114A      0.784751  
     115A      0.789964   116A      0.791826   117A      0.796449  
     118A      0.822132   119A      0.858439   120A      0.859158  
     121A      0.860354   122A      0.877786   123A      0.893766  
     124A      0.898118   125A      0.932197   126A      0.945451  
     127A      0.946476   128A      0.949038   129A      0.976140  
     130A      0.976503   131A      0.987672   132A      1.007835  
     133A      1.023166   134A      1.030194   135A      1.049563  
     136A      1.079498   137A      1.098840   138A      1.103114  
     139A      1.103526   140A      1.136478   141A      1.198571  
     142A      1.212240   143A      1.238105   144A      1.353290  
     145A      1.356905   146A      1.428349   147A      1.502879  
     148A      1.503445   149A      1.535424   150A      1.537777  
     151A      1.538785   152A      1.541837   153A      1.565383  
     154A      1.582730   155A      1.616012   156A      1.627523  
     157A      1.628007   158A      1.638993   159A      1.639936  
     160A      1.671414   161A      1.708638   162A      1.714413  
     163A      1.715952   164A      1.724139   165A      1.732431  
     166A      1.776957   167A      1.793801   168A      1.798213  
     169A      1.800414   170A      1.829177   171A      1.840635  
     172A      1.859894   173A      1.892436   174A      1.904172  
     175A      1.913775   176A      1.929646   177A      1.933875  
     178A      1.945085   179A      1.956166   180A      1.971347  
     181A      1.971363   182A      1.978042   183A      1.991980  
     184A      1.999750   185A      2.016205   186A      2.022640  
     187A      2.081213   188A      2.111258   189A      2.112696  
     190A      2.142474   191A      2.147721   192A      2.154445  
     193A      2.205580   194A      2.206267   195A      2.225163  
     196A      2.230913   197A      2.266966   198A      2.268803  
     199A      2.298105   200A      2.354371   201A      2.356205  
     202A      2.363669   203A      2.376864   204A      2.379822  
     205A      2.427706   206A      2.446476   207A      2.460943  
     208A      2.464140   209A      2.465916   210A      2.475977  
     211A      2.623048   212A      2.648549   213A      2.684573  
     214A      2.796060   215A      2.800352   216A      2.804770  
     217A      2.814427   218A      2.817073   219A      2.976236  
     220A      2.982120   221A      2.983962   222A      3.146637  
     223A      3.147809   224A      3.160642   225A      3.168905  
     226A      3.180459   227A      3.337997   228A      3.388503  
     229A      3.566037   230A      3.568780   231A      3.892766  
     232A      4.857703   233A      6.832786   234A     20.373308  
     235A     20.794975   236A     21.104651   237A    137.999371  

    Final Occupation by Irrep:
              A 
    DOCC [    21 ]

  @DF-RHF Final Energy:  -230.72822581478846

   => Energetics <=

    Nuclear Repulsion Energy =            203.6538916079341277
    One-Electron Energy =                -713.5610642102797101
    Two-Electron Energy =                 279.1789467875570949
    Total Energy =                       -230.7282258147884590

Computation Completed


Properties will be evaluated at   0.000000,   0.000000,   0.000000 [a0]

Properties computed using the SCF density matrix

  Nuclear Dipole Moment: [e a0]
     X:     0.0000      Y:    -0.0000      Z:    98.0989

  Electronic Dipole Moment: [e a0]
     X:     0.0000      Y:    -0.0000      Z:   -98.0970

  Dipole Moment: [e a0]
     X:     0.0000      Y:    -0.0000      Z:     0.0019     Total:     0.0019

  Dipole Moment: [D]
     X:     0.0000      Y:    -0.0000      Z:     0.0049     Total:     0.0049


*** tstop() called on node51.bme.utexas.edu at Mon Sep  9 20:52:42 2019
Module time:
	user time   =      13.87 seconds =       0.23 minutes
	system time =       0.37 seconds =       0.01 minutes
	total time  =          4 seconds =       0.07 minutes
Total time:
	user time   =      41.72 seconds =       0.70 minutes
	system time =       1.04 seconds =       0.02 minutes
	total time  =         12 seconds =       0.20 minutes

  //>>>>>>>>>>>>>>>>>>>>>>>>>>>>>>>>>>>//
  //            Monomer B HF           //
  //<<<<<<<<<<<<<<<<<<<<<<<<<<<<<<<<<<<//


*** tstart() called on node51.bme.utexas.edu
*** at Mon Sep  9 20:52:42 2019

   => Loading Basis Set <=

    Name: AUG-CC-PVDZ
    Role: ORBITAL
    Keyword: BASIS
    atoms 1-6         entry C          line   178 file /home/xy3866/psi4conda/share/psi4/basis/aug-cc-pvdz.gbs 
    atoms 7-12, 14-15 entry H          line    36 file /home/xy3866/psi4conda/share/psi4/basis/aug-cc-pvdz.gbs 
    atoms 13          entry S          line   698 file /home/xy3866/psi4conda/share/psi4/basis/aug-cc-pvdz.gbs 


         ---------------------------------------------------------
                                   SCF
               by Justin Turney, Rob Parrish, Andy Simmonett
                          and Daniel G. A. Smith
                              RHF Reference
                        4 Threads,  30517 MiB Core
         ---------------------------------------------------------

  ==> Geometry <==

    Molecular point group: c1
    Full point group: C2v

    Geometry (in Angstrom), charge = 0, multiplicity = 1:

       Center              X                  Y                   Z               Mass       
    ------------   -----------------  -----------------  -----------------  -----------------
      Gh(C)           0.000000000000    -1.393658000000     1.236644156231    12.000000000000
      Gh(C)           1.207737000000    -0.696816000000     1.235419156231    12.000000000000
      Gh(C)           1.207737000000     0.696816000000     1.235419156231    12.000000000000
      Gh(C)           0.000000000000     1.393658000000     1.236644156231    12.000000000000
      Gh(C)          -1.207737000000     0.696816000000     1.235419156231    12.000000000000
      Gh(C)          -1.207737000000    -0.696816000000     1.235419156231    12.000000000000
      Gh(H)           0.000000000000    -2.475320000000     1.241918156231     1.007825032230
      Gh(H)           2.144314000000    -1.237314000000     1.234520156231     1.007825032230
      Gh(H)           2.144314000000     1.237314000000     1.234520156231     1.007825032230
      Gh(H)           0.000000000000     2.475320000000     1.241918156231     1.007825032230
      Gh(H)          -2.144314000000     1.237314000000     1.234520156231     1.007825032230
      Gh(H)          -2.144314000000    -1.237314000000     1.234520156231     1.007825032230
         S            0.000000000000     0.000000000000    -2.893584943769    31.972071174400
         H            0.000000000000     0.954437000000    -1.957516943769     1.007825032230
         H            0.000000000000    -0.954437000000    -1.957516943769     1.007825032230

  Running in c1 symmetry.

  Rotational constants: A =      0.09427  B =      0.03489  C =      0.03476 [cm^-1]
  Rotational constants: A =   2826.03195  B =   1045.92811  C =   1042.19869 [MHz]
  Nuclear repulsion =   12.944044801570231

  Charge       = 0
  Multiplicity = 1
  Electrons    = 18
  Nalpha       = 9
  Nbeta        = 9

  ==> Algorithm <==

  SCF Algorithm Type is DF.
  DIIS enabled.
  MOM disabled.
  Fractional occupation disabled.
  Guess Type is SAD.
  Energy threshold   = 1.00e-08
  Density threshold  = 1.00e-08
  Integral threshold = 0.00e+00

  ==> Primary Basis <==

  Basis Set: AUG-CC-PVDZ
    Blend: AUG-CC-PVDZ
    Number of shells: 105
    Number of basis function: 237
    Number of Cartesian functions: 251
    Spherical Harmonics?: true
    Max angular momentum: 2

   => Loading Basis Set <=

    Name: (AUG-CC-PVDZ AUX)
    Role: JKFIT
    Keyword: DF_BASIS_SCF
    atoms 1-6         entry C          line   154 file /home/xy3866/psi4conda/share/psi4/basis/aug-cc-pvdz-jkfit.gbs 
    atoms 7-12, 14-15 entry H          line    70 file /home/xy3866/psi4conda/share/psi4/basis/aug-cc-pvdz-jkfit.gbs 
    atoms 13          entry S          line   690 file /home/xy3866/psi4conda/share/psi4/basis/aug-cc-pvdz-jkfit.gbs 

  ==> Pre-Iterations <==

   -------------------------------------------------------
    Irrep   Nso     Nmo     Nalpha   Nbeta   Ndocc  Nsocc
   -------------------------------------------------------
     A        237     237       0       0       0       0
   -------------------------------------------------------
    Total     237     237       9       9       9       0
   -------------------------------------------------------

  ==> Integral Setup <==

  ==> DiskDFJK: Density-Fitted J/K Matrices <==

    J tasked:                  Yes
    K tasked:                  Yes
    wK tasked:                  No
    OpenMP threads:              4
    Integrals threads:           4
    Memory [MiB]:            22888
    Algorithm:                Core
    Integral Cache:           LOAD
    Schwarz Cutoff:          1E-12
    Fitting Condition:       1E-10

   => Auxiliary Basis Set <=

  Basis Set: (AUG-CC-PVDZ AUX)
    Blend: AUG-CC-PVDZ-JKFIT
    Number of shells: 304
    Number of basis function: 900
    Number of Cartesian functions: 1036
    Spherical Harmonics?: true
    Max angular momentum: 3

  Minimum eigenvalue in the overlap matrix is 2.3316467845E-06.
  Using Symmetric Orthogonalization.

  SCF Guess: Superposition of Atomic Densities via on-the-fly atomic UHF.

  ==> Iterations <==

                           Total Energy        Delta E     RMS |[F,P]|

   @DF-RHF iter SAD:  -398.41713697388849   -3.98417e+02   0.00000e+00 
   @DF-RHF iter   1:  -398.66621395937636   -2.49077e-01   7.96508e-04 DIIS
   @DF-RHF iter   2:  -398.69419400800859   -2.79800e-02   2.79540e-04 DIIS
   @DF-RHF iter   3:  -398.69739569215386   -3.20168e-03   7.41836e-05 DIIS
   @DF-RHF iter   4:  -398.69794573229694   -5.50040e-04   1.36659e-05 DIIS
   @DF-RHF iter   5:  -398.69796613016047   -2.03979e-05   1.91231e-06 DIIS
   @DF-RHF iter   6:  -398.69796650250930   -3.72349e-07   5.09261e-07 DIIS
   @DF-RHF iter   7:  -398.69796652951794   -2.70086e-08   1.25835e-07 DIIS
   @DF-RHF iter   8:  -398.69796653116248   -1.64454e-09   1.64083e-08 DIIS
   @DF-RHF iter   9:  -398.69796653118766   -2.51816e-11   3.00709e-09 DIIS
  Energy and wave function converged.


  ==> Post-Iterations <==

    Orbital Energies [Eh]
    ---------------------

    Doubly Occupied:                                                      

       1A    -91.971106     2A     -8.973130     3A     -6.655189  
       4A     -6.654180     5A     -6.651684     6A     -0.985213  
       7A     -0.587610     8A     -0.503781     9A     -0.384878  

    Virtual:                                                              

      10A      0.018471    11A      0.034984    12A      0.036947  
      13A      0.051481    14A      0.056004    15A      0.056120  
      16A      0.074550    17A      0.076472    18A      0.081283  
      19A      0.103457    20A      0.105464    21A      0.112053  
      22A      0.117113    23A      0.120027    24A      0.140715  
      25A      0.143861    26A      0.144200    27A      0.148442  
      28A      0.151174    29A      0.152109    30A      0.152968  
      31A      0.159514    32A      0.170914    33A      0.181504  
      34A      0.185343    35A      0.187378    36A      0.187651  
      37A      0.192902    38A      0.202118    39A      0.202187  
      40A      0.226573    41A      0.234220    42A      0.248349  
      43A      0.254234    44A      0.268689    45A      0.275731  
      46A      0.281128    47A      0.298655    48A      0.308098  
      49A      0.325745    50A      0.334448    51A      0.335626  
      52A      0.358738    53A      0.367961    54A      0.390099  
      55A      0.405336    56A      0.405976    57A      0.411372  
      58A      0.413180    59A      0.421961    60A      0.427097  
      61A      0.427952    62A      0.446458    63A      0.454663  
      64A      0.456510    65A      0.468853    66A      0.472285  
      67A      0.477558    68A      0.477728    69A      0.478206  
      70A      0.519298    71A      0.520042    72A      0.523294  
      73A      0.527039    74A      0.544178    75A      0.545521  
      76A      0.549848    77A      0.569613    78A      0.577157  
      79A      0.579283    80A      0.594334    81A      0.617661  
      82A      0.619065    83A      0.628140    84A      0.632783  
      85A      0.654137    86A      0.667728    87A      0.668602  
      88A      0.672742    89A      0.691103    90A      0.691795  
      91A      0.716882    92A      0.727179    93A      0.749550  
      94A      0.776116    95A      0.784210    96A      0.784914  
      97A      0.788216    98A      0.804998    99A      0.825820  
     100A      0.838338   101A      0.844849   102A      0.858233  
     103A      0.874373   104A      0.875368   105A      0.889500  
     106A      0.889708   107A      0.892822   108A      0.894603  
     109A      0.900778   110A      0.910029   111A      0.911595  
     112A      0.920338   113A      0.925625   114A      0.951617  
     115A      0.998282   116A      1.005836   117A      1.014653  
     118A      1.017683   119A      1.032049   120A      1.034199  
     121A      1.041239   122A      1.054032   123A      1.064799  
     124A      1.112974   125A      1.114209   126A      1.118312  
     127A      1.119766   128A      1.141829   129A      1.203752  
     130A      1.208493   131A      1.226033   132A      1.227230  
     133A      1.228797   134A      1.258327   135A      1.258755  
     136A      1.289312   137A      1.381268   138A      1.398272  
     139A      1.398568   140A      1.477560   141A      1.477675  
     142A      1.477922   143A      1.480077   144A      1.489807  
     145A      1.662553   146A      1.704624   147A      1.809378  
     148A      1.912889   149A      1.916264   150A      1.936194  
     151A      2.047555   152A      2.059924   153A      2.117501  
     154A      2.130181   155A      2.131218   156A      2.133268  
     157A      2.159156   158A      2.182686   159A      2.194246  
     160A      2.207976   161A      2.212949   162A      2.236586  
     163A      2.250092   164A      2.252428   165A      2.285369  
     166A      2.296527   167A      2.297798   168A      2.308144  
     169A      2.309043   170A      2.314475   171A      2.354729  
     172A      2.369190   173A      2.403013   174A      2.483827  
     175A      2.492853   176A      2.496344   177A      2.497344  
     178A      2.505179   179A      2.524130   180A      2.527741  
     181A      2.601349   182A      2.619687   183A      2.634819  
     184A      2.649459   185A      2.651157   186A      2.663005  
     187A      2.665010   188A      2.673463   189A      2.707929  
     190A      2.742242   191A      2.797535   192A      2.856507  
     193A      2.858076   194A      2.868201   195A      2.870129  
     196A      2.870381   197A      2.873333   198A      2.943890  
     199A      2.945316   200A      3.100566   201A      3.196043  
     202A      3.253575   203A      3.331123   204A      3.394525  
     205A      3.400478   206A      3.406197   207A      3.407464  
     208A      3.420210   209A      3.461253   210A      3.462860  
     211A      3.464712   212A      3.467462   213A      3.536762  
     214A      3.698601   215A      3.935956   216A      3.950911  
     217A      3.975110   218A      3.977312   219A      4.103038  
     220A      4.375321   221A      4.380223   222A      4.662463  
     223A      4.840564   224A      4.842333   225A      5.305251  
     226A      5.448323   227A      5.449172   228A      5.467447  
     229A      5.469536   230A      5.642846   231A      6.094940  
     232A     17.983458   233A     18.379886   234A     18.388123  
     235A     18.997492   236A     18.997849   237A     20.698795  

    Final Occupation by Irrep:
              A 
    DOCC [     9 ]

  @DF-RHF Final Energy:  -398.69796653118766

   => Energetics <=

    Nuclear Repulsion Energy =             12.9440448015702305
    One-Electron Energy =                -576.5504819726016876
    Two-Electron Energy =                 164.9084706398437561
    Total Energy =                       -398.6979665311876602

Computation Completed


Properties will be evaluated at   0.000000,   0.000000,   0.000000 [a0]

Properties computed using the SCF density matrix

  Nuclear Dipole Moment: [e a0]
     X:     0.0000      Y:     0.0000      Z:   -94.8877

  Electronic Dipole Moment: [e a0]
     X:     0.0000      Y:     0.0000      Z:    95.3301

  Dipole Moment: [e a0]
     X:     0.0000      Y:     0.0000      Z:     0.4424     Total:     0.4424

  Dipole Moment: [D]
     X:     0.0000      Y:     0.0000      Z:     1.1246     Total:     1.1246


*** tstop() called on node51.bme.utexas.edu at Mon Sep  9 20:52:46 2019
Module time:
	user time   =      11.69 seconds =       0.19 minutes
	system time =       0.25 seconds =       0.00 minutes
	total time  =          4 seconds =       0.07 minutes
Total time:
	user time   =      53.43 seconds =       0.89 minutes
	system time =       1.29 seconds =       0.02 minutes
	total time  =         16 seconds =       0.27 minutes
  Constructing Basis Sets for SAPT...

   => Loading Basis Set <=

    Name: (AUG-CC-PVDZ AUX)
    Role: RIFIT
    Keyword: DF_BASIS_SAPT
    atoms 1-6         entry C          line   112 file /home/xy3866/psi4conda/share/psi4/basis/aug-cc-pvdz-ri.gbs 
    atoms 7-12, 14-15 entry H          line    30 file /home/xy3866/psi4conda/share/psi4/basis/aug-cc-pvdz-ri.gbs 
    atoms 13          entry S          line   516 file /home/xy3866/psi4conda/share/psi4/basis/aug-cc-pvdz-ri.gbs 


  //>>>>>>>>>>>>>>>>>>>>>>>>>>>>>>>>>>>//
  //               SAPT2+              //
  //<<<<<<<<<<<<<<<<<<<<<<<<<<<<<<<<<<<//


*** tstart() called on node51.bme.utexas.edu
*** at Mon Sep  9 20:52:46 2019

        SAPT2+  
    Ed Hohenstein
     6 June 2009

      Orbital Information
  --------------------------
    NSO        =       237
    NMO        =       237
    NRI        =       708
    NOCC A     =        21
    NOCC B     =         9
    FOCC A     =         6
    FOCC B     =         5
    NVIR A     =       216
    NVIR B     =       228

    Estimated memory usage: 844.6 MB

    Natural Orbital Cutoff:   1.000E-06
    Disp(T3) Truncation:            Yes
    CCD (vv|vv) Truncation:         Yes
    MBPT T2 Truncation:             Yes

    Monomer A: 51 virtual orbitals dropped
    Monomer B: 187 virtual orbitals dropped

    Elst10,r            =    -0.002368548145 [Eh]
    Exch10 (S^2)        =     0.002268266374 [Eh]
    Exch10              =     0.002268802676 [Eh]
    Ind20,r (A<-B)      =    -0.000414663908 [Eh]
    Ind20,r (B<-A)      =    -0.000290429847 [Eh]
    Ind20,r             =    -0.000705093755 [Eh]
    Exch-Ind20,r (A<-B) =     0.000222705254 [Eh]
    Exch-Ind20,r (B<-A) =     0.000185666530 [Eh]
    Exch-Ind20,r        =     0.000408371784 [Eh]
    Disp20              =    -0.004441172334 [Eh]
    Disp20 (NO)         =    -0.004170414227 [Eh]
    Exch-Disp20         =     0.000316813907 [Eh]
    Elst12,r            =     0.000248626098 [Eh]
    Exch11              =     0.000136166265 [Eh]
    Exch12              =     0.000074345576 [Eh]
    Ind22               =    -0.000036637861 [Eh]
    Disp21              =     0.001067145862 [Eh]
    Disp22 (SDQ)        =     0.000113401137 [Eh]

    (i =   1 of   4)          8 seconds
    (i =   2 of   4)         16 seconds
    (i =   3 of   4)         24 seconds
    (i =   4 of   4)         32 seconds

    Disp220 (T)         =    -0.000452354062 [Eh]

    (i =   1 of  15)          0 seconds
    (i =   2 of  15)          1 seconds
    (i =   3 of  15)          1 seconds
    (i =   4 of  15)          1 seconds
    (i =   5 of  15)          1 seconds
    (i =   6 of  15)          1 seconds
    (i =   7 of  15)          2 seconds
    (i =   8 of  15)          2 seconds
    (i =   9 of  15)          2 seconds
    (i =  10 of  15)          2 seconds
    (i =  11 of  15)          3 seconds
    (i =  12 of  15)          3 seconds
    (i =  13 of  15)          3 seconds
    (i =  14 of  15)          3 seconds
    (i =  15 of  15)          3 seconds

    Disp202 (T)         =    -0.000290108054 [Eh]

    Disp22 (T)          =    -0.000742462116 [Eh]

    Est. Disp220 (T)    =    -0.000481722495 [Eh]
    Est. Disp202 (T)    =    -0.000308942899 [Eh]

    Est. Disp22 (T)     =    -0.000790665394 [Eh]

    SAPT Results 
  --------------------------------------------------------------------------------------------------------
    Electrostatics                 -2.11992205 [mEh]      -1.33027117 [kcal/mol]      -5.56585457 [kJ/mol]
      Elst10,r                     -2.36854815 [mEh]      -1.48628640 [kcal/mol]      -6.21862230 [kJ/mol]
      Elst12,r                      0.24862610 [mEh]       0.15601523 [kcal/mol]       0.65276773 [kJ/mol]

    Exchange                        2.47931452 [mEh]       1.55579335 [kcal/mol]       6.50943937 [kJ/mol]
      Exch10                        2.26880268 [mEh]       1.42369517 [kcal/mol]       5.95674060 [kJ/mol]
      Exch10(S^2)                   2.26826637 [mEh]       1.42335864 [kcal/mol]       5.95533254 [kJ/mol]
      Exch11(S^2)                   0.13616627 [mEh]       0.08544562 [kcal/mol]       0.35750448 [kJ/mol]
      Exch12(S^2)                   0.07434558 [mEh]       0.04665255 [kcal/mol]       0.19519428 [kJ/mol]

    Induction                      -0.59222944 [mEh]      -0.37162959 [kcal/mol]      -1.55489819 [kJ/mol]
      Ind20,r                      -0.70509375 [mEh]      -0.44245301 [kcal/mol]      -1.85122340 [kJ/mol]
      Ind22                        -0.03663786 [mEh]      -0.02299061 [kcal/mol]      -0.09619269 [kJ/mol]
      Exch-Ind20,r                  0.40837178 [mEh]       0.25625716 [kcal/mol]       1.07217997 [kJ/mol]
      Exch-Ind22                    0.02121969 [mEh]       0.01331555 [kcal/mol]       0.05571228 [kJ/mol]
      delta HF,r (2)               -0.28008930 [mEh]      -0.17575869 [kcal/mol]      -0.73537435 [kJ/mol]

    Dispersion                     -3.73447682 [mEh]      -2.34341959 [kcal/mol]      -9.80486755 [kJ/mol]
      Disp20                       -4.44117233 [mEh]      -2.78687771 [kcal/mol]     -11.66029636 [kJ/mol]
      Disp21                        1.06714586 [mEh]       0.66964414 [kcal/mol]       2.80179107 [kJ/mol]
      Disp22 (SDQ)                  0.11340114 [mEh]       0.07116029 [kcal/mol]       0.29773464 [kJ/mol]
      Disp22 (T)                   -0.74246212 [mEh]      -0.46590201 [kcal/mol]      -1.94933402 [kJ/mol]
      Est. Disp22 (T)              -0.79066539 [mEh]      -0.49615003 [kcal/mol]      -2.07589171 [kJ/mol]
      Exch-Disp20                   0.31681391 [mEh]       0.19880373 [kcal/mol]       0.83179480 [kJ/mol]

  Total HF                         -0.67655674 [mEh]      -0.42454576 [kcal/mol]      -1.77629947 [kJ/mol]
  Total SAPT0                      -4.80091516 [mEh]      -3.01261975 [kcal/mol]     -12.60480103 [kJ/mol]
  Total SAPT2                      -4.35719540 [mEh]      -2.73418139 [kcal/mol]     -11.43981495 [kJ/mol]
  Total SAPT2+                     -3.96731380 [mEh]      -2.48952699 [kcal/mol]     -10.41618094 [kJ/mol]

  Special recipe for scaled SAPT0 (see Manual):
    Electrostatics sSAPT0          -2.36854815 [mEh]      -1.48628640 [kcal/mol]      -6.21862230 [kJ/mol]
    Exchange sSAPT0                 2.26880268 [mEh]       1.42369517 [kcal/mol]       5.95674060 [kJ/mol]
    Induction sSAPT0               -0.57652154 [mEh]      -0.36177273 [kcal/mol]      -1.51365709 [kJ/mol]
    Dispersion sSAPT0              -4.12413365 [mEh]      -2.58793294 [kcal/mol]     -10.82791142 [kJ/mol]
  Total sSAPT0                     -4.80040066 [mEh]      -3.01229689 [kcal/mol]     -12.60345020 [kJ/mol]
  --------------------------------------------------------------------------------------------------------

*** tstop() called on node51.bme.utexas.edu at Mon Sep  9 20:54:26 2019
Module time:
	user time   =     378.19 seconds =       6.30 minutes
	system time =      15.01 seconds =       0.25 minutes
	total time  =        100 seconds =       1.67 minutes
Total time:
	user time   =     432.17 seconds =       7.20 minutes
	system time =      16.32 seconds =       0.27 minutes
	total time  =        116 seconds =       1.93 minutes

    Psi4 stopped on: Monday, 09 September 2019 08:54PM
    Psi4 wall time for execution: 0:01:56.73

*** Psi4 exiting successfully. Buy a developer a beer!
