
    -----------------------------------------------------------------------
          Psi4: An Open-Source Ab Initio Electronic Structure Package
                               Psi4 1.3.2 release

                         Git: Rev {HEAD} ecbda83 


    R. M. Parrish, L. A. Burns, D. G. A. Smith, A. C. Simmonett,
    A. E. DePrince III, E. G. Hohenstein, U. Bozkaya, A. Yu. Sokolov,
    R. Di Remigio, R. M. Richard, J. F. Gonthier, A. M. James,
    H. R. McAlexander, A. Kumar, M. Saitow, X. Wang, B. P. Pritchard,
    P. Verma, H. F. Schaefer III, K. Patkowski, R. A. King, E. F. Valeev,
    F. A. Evangelista, J. M. Turney, T. D. Crawford, and C. D. Sherrill,
    J. Chem. Theory Comput. 13(7) pp 3185--3197 (2017).
    (doi: 10.1021/acs.jctc.7b00174)


                         Additional Contributions by
    P. Kraus, H. Kruse, M. H. Lechner, M. C. Schieber, R. A. Shaw,
    A. Alenaizan, R. Galvelis, Z. L. Glick, S. Lehtola, and J. P. Misiewicz

    -----------------------------------------------------------------------


    Psi4 started on: Monday, 09 September 2019 08:47PM

    Process ID: 93992
    Host:       node51.bme.utexas.edu
    PSIDATADIR: /home/xy3866/psi4conda/share/psi4
    Memory:     500.0 MiB
    Threads:    4
    
  ==> Input File <==

--------------------------------------------------------------------------
#psi4
#
memory 32 gb

molecule  {
0 1
  C        0.0000000    -1.3936580     1.0640200
  C        1.2077370    -0.6968160     1.0627950
  C        1.2077370     0.6968160     1.0627950
  C        0.0000000     1.3936580     1.0640200
  C       -1.2077370     0.6968160     1.0627950
  C       -1.2077370    -0.6968160     1.0627950
  H        0.0000000    -2.4753200     1.0692940
  H        2.1443140    -1.2373140     1.0618960
  H        2.1443140     1.2373140     1.0618960
  H        0.0000000     2.4753200     1.0692940
  H       -2.1443140     1.2373140     1.0618960
  H       -2.1443140    -1.2373140     1.0618960
--
0 1
  S        0.0000000     0.0000000    -2.3154069
  H        0.0000000     0.9544370    -1.3793389
  H        0.0000000    -0.9544370    -1.3793389
units angstrom
no_reorient  #important for SAPT in psi4, default
symmetry c1  #important for SAPT in psi4, default
}

set {
basis aug-cc-pVDZ
scf_type DF
freeze_core True
}
energy('sapt2+')
--------------------------------------------------------------------------

  Memory set to  29.802 GiB by Python driver.

  //>>>>>>>>>>>>>>>>>>>>>>>>>>>>>>>>>>>//
  //              Dimer HF             //
  //<<<<<<<<<<<<<<<<<<<<<<<<<<<<<<<<<<<//


*** tstart() called on node51.bme.utexas.edu
*** at Mon Sep  9 20:47:54 2019

   => Loading Basis Set <=

    Name: AUG-CC-PVDZ
    Role: ORBITAL
    Keyword: BASIS
    atoms 1-6         entry C          line   178 file /home/xy3866/psi4conda/share/psi4/basis/aug-cc-pvdz.gbs 
    atoms 7-12, 14-15 entry H          line    36 file /home/xy3866/psi4conda/share/psi4/basis/aug-cc-pvdz.gbs 
    atoms 13          entry S          line   698 file /home/xy3866/psi4conda/share/psi4/basis/aug-cc-pvdz.gbs 


         ---------------------------------------------------------
                                   SCF
               by Justin Turney, Rob Parrish, Andy Simmonett
                          and Daniel G. A. Smith
                              RHF Reference
                        4 Threads,  30517 MiB Core
         ---------------------------------------------------------

  ==> Geometry <==

    Molecular point group: c1
    Full point group: C2v

    Geometry (in Angstrom), charge = 0, multiplicity = 1:

       Center              X                  Y                   Z               Mass       
    ------------   -----------------  -----------------  -----------------  -----------------
         C            0.000000000000    -1.393658000000     1.008874881301    12.000000000000
         C            1.207737000000    -0.696816000000     1.007649881301    12.000000000000
         C            1.207737000000     0.696816000000     1.007649881301    12.000000000000
         C            0.000000000000     1.393658000000     1.008874881301    12.000000000000
         C           -1.207737000000     0.696816000000     1.007649881301    12.000000000000
         C           -1.207737000000    -0.696816000000     1.007649881301    12.000000000000
         H            0.000000000000    -2.475320000000     1.014148881301     1.007825032230
         H            2.144314000000    -1.237314000000     1.006750881301     1.007825032230
         H            2.144314000000     1.237314000000     1.006750881301     1.007825032230
         H            0.000000000000     2.475320000000     1.014148881301     1.007825032230
         H           -2.144314000000     1.237314000000     1.006750881301     1.007825032230
         H           -2.144314000000    -1.237314000000     1.006750881301     1.007825032230
         S            0.000000000000     0.000000000000    -2.370552018699    31.972071174400
         H            0.000000000000     0.954437000000    -1.434484018699     1.007825032230
         H            0.000000000000    -0.954437000000    -1.434484018699     1.007825032230

  Running in c1 symmetry.

  Rotational constants: A =      0.09427  B =      0.04793  C =      0.04770 [cm^-1]
  Rotational constants: A =   2826.03195  B =   1437.00218  C =   1429.97187 [MHz]
  Nuclear repulsion =  326.986283953156430

  Charge       = 0
  Multiplicity = 1
  Electrons    = 60
  Nalpha       = 30
  Nbeta        = 30

  ==> Algorithm <==

  SCF Algorithm Type is DF.
  DIIS enabled.
  MOM disabled.
  Fractional occupation disabled.
  Guess Type is SAD.
  Energy threshold   = 1.00e-08
  Density threshold  = 1.00e-08
  Integral threshold = 0.00e+00

  ==> Primary Basis <==

  Basis Set: AUG-CC-PVDZ
    Blend: AUG-CC-PVDZ
    Number of shells: 105
    Number of basis function: 237
    Number of Cartesian functions: 251
    Spherical Harmonics?: true
    Max angular momentum: 2

   => Loading Basis Set <=

    Name: (AUG-CC-PVDZ AUX)
    Role: JKFIT
    Keyword: DF_BASIS_SCF
    atoms 1-6         entry C          line   154 file /home/xy3866/psi4conda/share/psi4/basis/aug-cc-pvdz-jkfit.gbs 
    atoms 7-12, 14-15 entry H          line    70 file /home/xy3866/psi4conda/share/psi4/basis/aug-cc-pvdz-jkfit.gbs 
    atoms 13          entry S          line   690 file /home/xy3866/psi4conda/share/psi4/basis/aug-cc-pvdz-jkfit.gbs 

  ==> Pre-Iterations <==

   -------------------------------------------------------
    Irrep   Nso     Nmo     Nalpha   Nbeta   Ndocc  Nsocc
   -------------------------------------------------------
     A        237     237       0       0       0       0
   -------------------------------------------------------
    Total     237     237      30      30      30       0
   -------------------------------------------------------

  ==> Integral Setup <==

  ==> DiskDFJK: Density-Fitted J/K Matrices <==

    J tasked:                  Yes
    K tasked:                  Yes
    wK tasked:                  No
    OpenMP threads:              4
    Integrals threads:           4
    Memory [MiB]:            22888
    Algorithm:                Core
    Integral Cache:           SAVE
    Schwarz Cutoff:          1E-12
    Fitting Condition:       1E-10

   => Auxiliary Basis Set <=

  Basis Set: (AUG-CC-PVDZ AUX)
    Blend: AUG-CC-PVDZ-JKFIT
    Number of shells: 304
    Number of basis function: 900
    Number of Cartesian functions: 1036
    Spherical Harmonics?: true
    Max angular momentum: 3

  Minimum eigenvalue in the overlap matrix is 2.3314778976E-06.
  Using Symmetric Orthogonalization.

  SCF Guess: Superposition of Atomic Densities via on-the-fly atomic UHF.

  ==> Iterations <==

                           Total Energy        Delta E     RMS |[F,P]|

   @DF-RHF iter SAD:  -628.80100145276549   -6.28801e+02   0.00000e+00 
   @DF-RHF iter   1:  -629.22137645058547   -4.20375e-01   2.26923e-03 DIIS
   @DF-RHF iter   2:  -629.38303198660924   -1.61656e-01   1.04275e-03 DIIS
   @DF-RHF iter   3:  -629.41600219266752   -3.29702e-02   2.06547e-04 DIIS
   @DF-RHF iter   4:  -629.41819370476617   -2.19151e-03   4.42954e-05 DIIS
   @DF-RHF iter   5:  -629.41830871871559   -1.15014e-04   1.17423e-05 DIIS
   @DF-RHF iter   6:  -629.41831943832540   -1.07196e-05   3.10663e-06 DIIS
   @DF-RHF iter   7:  -629.41832026738848   -8.29063e-07   8.11184e-07 DIIS
   @DF-RHF iter   8:  -629.41832032432069   -5.69322e-08   1.88283e-07 DIIS
   @DF-RHF iter   9:  -629.41832032719321   -2.87253e-09   4.40478e-08 DIIS
   @DF-RHF iter  10:  -629.41832032733123   -1.38016e-10   1.51469e-08 DIIS
   @DF-RHF iter  11:  -629.41832032734055   -9.32232e-12   3.60250e-09 DIIS
  Energy and wave function converged.


  ==> Post-Iterations <==

    Orbital Energies [Eh]
    ---------------------

    Doubly Occupied:                                                      

       1A    -91.943926     2A    -11.252629     3A    -11.252303  
       4A    -11.251738     5A    -11.250949     6A    -11.250517  
       7A    -11.250118     8A     -8.946693     9A     -6.628829  
      10A     -6.627866    11A     -6.625472    12A     -1.164935  
      13A     -1.028856    14A     -1.027782    15A     -0.963526  
      16A     -0.836341    17A     -0.835954    18A     -0.720643  
      19A     -0.654635    20A     -0.629985    21A     -0.599005  
      22A     -0.598397    23A     -0.569453    24A     -0.531230  
      25A     -0.504783    26A     -0.504378    27A     -0.463445  
      28A     -0.372356    29A     -0.347605    30A     -0.338802  

    Virtual:                                                              

      31A      0.032973    32A      0.039767    33A      0.041485  
      34A      0.055135    35A      0.055386    36A      0.062990  
      37A      0.074548    38A      0.077123    39A      0.093730  
      40A      0.096915    41A      0.120805    42A      0.132608  
      43A      0.138077    44A      0.141063    45A      0.143184  
      46A      0.146371    47A      0.148489    48A      0.149036  
      49A      0.150206    50A      0.155902    51A      0.161704  
      52A      0.168262    53A      0.180918    54A      0.185526  
      55A      0.185927    56A      0.187356    57A      0.187615  
      58A      0.188364    59A      0.197268    60A      0.204825  
      61A      0.217550    62A      0.245859    63A      0.248393  
      64A      0.264294    65A      0.270798    66A      0.289709  
      67A      0.290196    68A      0.319339    69A      0.321826  
      70A      0.332481    71A      0.336564    72A      0.340716  
      73A      0.359422    74A      0.364028    75A      0.373740  
      76A      0.380024    77A      0.381015    78A      0.397652  
      79A      0.404705    80A      0.418743    81A      0.421997  
      82A      0.430623    83A      0.435475    84A      0.435744  
      85A      0.437258    86A      0.437610    87A      0.456383  
      88A      0.468190    89A      0.480203    90A      0.506023  
      91A      0.515865    92A      0.530671    93A      0.533641  
      94A      0.563273    95A      0.565533    96A      0.566742  
      97A      0.573947    98A      0.576165    99A      0.576811  
     100A      0.587545   101A      0.589236   102A      0.602536  
     103A      0.613739   104A      0.618249   105A      0.630374  
     106A      0.636098   107A      0.667949   108A      0.669693  
     109A      0.680552   110A      0.680835   111A      0.684407  
     112A      0.685566   113A      0.698026   114A      0.730357  
     115A      0.731399   116A      0.744896   117A      0.753019  
     118A      0.762738   119A      0.764502   120A      0.779838  
     121A      0.784883   122A      0.785503   123A      0.796795  
     124A      0.802953   125A      0.849986   126A      0.851732  
     127A      0.852142   128A      0.858751   129A      0.887101  
     130A      0.905328   131A      0.919435   132A      0.932051  
     133A      0.935857   134A      0.941349   135A      0.952988  
     136A      0.967804   137A      0.969389   138A      0.979568  
     139A      0.988629   140A      1.018734   141A      1.037167  
     142A      1.041246   143A      1.065377   144A      1.071104  
     145A      1.093513   146A      1.098308   147A      1.127095  
     148A      1.146366   149A      1.178673   150A      1.190591  
     151A      1.262318   152A      1.278387   153A      1.280667  
     154A      1.282485   155A      1.315345   156A      1.347128  
     157A      1.348104   158A      1.385434   159A      1.425441  
     160A      1.430570   161A      1.497618   162A      1.500212  
     163A      1.525687   164A      1.527850   165A      1.542273  
     166A      1.547524   167A      1.580017   168A      1.594373  
     169A      1.622766   170A      1.622995   171A      1.631372  
     172A      1.635341   173A      1.651148   174A      1.662954  
     175A      1.673895   176A      1.697999   177A      1.716173  
     178A      1.728980   179A      1.765756   180A      1.776966  
     181A      1.790873   182A      1.802849   183A      1.832460  
     184A      1.854935   185A      1.854958   186A      1.891185  
     187A      1.913730   188A      1.924176   189A      1.943185  
     190A      1.960135   191A      1.963070   192A      1.996787  
     193A      2.029993   194A      2.062659   195A      2.077920  
     196A      2.104404   197A      2.111531   198A      2.111532  
     199A      2.128363   200A      2.132589   201A      2.190091  
     202A      2.197287   203A      2.200584   204A      2.219455  
     205A      2.230881   206A      2.240748   207A      2.259138  
     208A      2.282433   209A      2.283121   210A      2.292240  
     211A      2.354332   212A      2.370788   213A      2.374702  
     214A      2.405695   215A      2.417960   216A      2.450468  
     217A      2.590884   218A      2.597358   219A      2.612287  
     220A      2.719904   221A      2.791425   222A      2.799410  
     223A      2.806488   224A      2.811038   225A      2.854436  
     226A      2.973868   227A      2.976857   228A      2.981410  
     229A      3.138437   230A      3.152263   231A      3.154009  
     232A      3.170345   233A      3.378955   234A      3.561208  
     235A      3.566220   236A      3.894357   237A      4.855166  

    Final Occupation by Irrep:
              A 
    DOCC [    30 ]

  @DF-RHF Final Energy:  -629.41832032734055

   => Energetics <=

    Nuclear Repulsion Energy =            326.9862839531564305
    One-Electron Energy =               -1510.8629031925215713
    Two-Electron Energy =                 554.4582989120244747
    Total Energy =                       -629.4183203273405525

Computation Completed


Properties will be evaluated at   0.000000,   0.000000,   0.000000 [a0]

Properties computed using the SCF density matrix

  Nuclear Dipole Moment: [e a0]
     X:     0.0000      Y:    -0.0000      Z:     2.9245

  Electronic Dipole Moment: [e a0]
     X:     0.0000      Y:     0.0000      Z:    -2.1918

  Dipole Moment: [e a0]
     X:     0.0000      Y:     0.0000      Z:     0.7327     Total:     0.7327

  Dipole Moment: [D]
     X:     0.0000      Y:     0.0000      Z:     1.8624     Total:     1.8624


*** tstop() called on node51.bme.utexas.edu at Mon Sep  9 20:48:02 2019
Module time:
	user time   =      28.67 seconds =       0.48 minutes
	system time =       0.73 seconds =       0.01 minutes
	total time  =          8 seconds =       0.13 minutes
Total time:
	user time   =      28.67 seconds =       0.48 minutes
	system time =       0.73 seconds =       0.01 minutes
	total time  =          8 seconds =       0.13 minutes

  //>>>>>>>>>>>>>>>>>>>>>>>>>>>>>>>>>>>//
  //            Monomer A HF           //
  //<<<<<<<<<<<<<<<<<<<<<<<<<<<<<<<<<<<//


*** tstart() called on node51.bme.utexas.edu
*** at Mon Sep  9 20:48:02 2019

   => Loading Basis Set <=

    Name: AUG-CC-PVDZ
    Role: ORBITAL
    Keyword: BASIS
    atoms 1-6         entry C          line   178 file /home/xy3866/psi4conda/share/psi4/basis/aug-cc-pvdz.gbs 
    atoms 7-12, 14-15 entry H          line    36 file /home/xy3866/psi4conda/share/psi4/basis/aug-cc-pvdz.gbs 
    atoms 13          entry S          line   698 file /home/xy3866/psi4conda/share/psi4/basis/aug-cc-pvdz.gbs 


         ---------------------------------------------------------
                                   SCF
               by Justin Turney, Rob Parrish, Andy Simmonett
                          and Daniel G. A. Smith
                              RHF Reference
                        4 Threads,  30517 MiB Core
         ---------------------------------------------------------

  ==> Geometry <==

    Molecular point group: c1
    Full point group: C2v

    Geometry (in Angstrom), charge = 0, multiplicity = 1:

       Center              X                  Y                   Z               Mass       
    ------------   -----------------  -----------------  -----------------  -----------------
         C            0.000000000000    -1.393658000000     1.008874881301    12.000000000000
         C            1.207737000000    -0.696816000000     1.007649881301    12.000000000000
         C            1.207737000000     0.696816000000     1.007649881301    12.000000000000
         C            0.000000000000     1.393658000000     1.008874881301    12.000000000000
         C           -1.207737000000     0.696816000000     1.007649881301    12.000000000000
         C           -1.207737000000    -0.696816000000     1.007649881301    12.000000000000
         H            0.000000000000    -2.475320000000     1.014148881301     1.007825032230
         H            2.144314000000    -1.237314000000     1.006750881301     1.007825032230
         H            2.144314000000     1.237314000000     1.006750881301     1.007825032230
         H            0.000000000000     2.475320000000     1.014148881301     1.007825032230
         H           -2.144314000000     1.237314000000     1.006750881301     1.007825032230
         H           -2.144314000000    -1.237314000000     1.006750881301     1.007825032230
      Gh(S)           0.000000000000     0.000000000000    -2.370552018699    31.972071174400
      Gh(H)           0.000000000000     0.954437000000    -1.434484018699     1.007825032230
      Gh(H)           0.000000000000    -0.954437000000    -1.434484018699     1.007825032230

  Running in c1 symmetry.

  Rotational constants: A =      0.09427  B =      0.04793  C =      0.04770 [cm^-1]
  Rotational constants: A =   2826.03195  B =   1437.00218  C =   1429.97187 [MHz]
  Nuclear repulsion =  203.653891607934128

  Charge       = 0
  Multiplicity = 1
  Electrons    = 42
  Nalpha       = 21
  Nbeta        = 21

  ==> Algorithm <==

  SCF Algorithm Type is DF.
  DIIS enabled.
  MOM disabled.
  Fractional occupation disabled.
  Guess Type is SAD.
  Energy threshold   = 1.00e-08
  Density threshold  = 1.00e-08
  Integral threshold = 0.00e+00

  ==> Primary Basis <==

  Basis Set: AUG-CC-PVDZ
    Blend: AUG-CC-PVDZ
    Number of shells: 105
    Number of basis function: 237
    Number of Cartesian functions: 251
    Spherical Harmonics?: true
    Max angular momentum: 2

   => Loading Basis Set <=

    Name: (AUG-CC-PVDZ AUX)
    Role: JKFIT
    Keyword: DF_BASIS_SCF
    atoms 1-6         entry C          line   154 file /home/xy3866/psi4conda/share/psi4/basis/aug-cc-pvdz-jkfit.gbs 
    atoms 7-12, 14-15 entry H          line    70 file /home/xy3866/psi4conda/share/psi4/basis/aug-cc-pvdz-jkfit.gbs 
    atoms 13          entry S          line   690 file /home/xy3866/psi4conda/share/psi4/basis/aug-cc-pvdz-jkfit.gbs 

  ==> Pre-Iterations <==

   -------------------------------------------------------
    Irrep   Nso     Nmo     Nalpha   Nbeta   Ndocc  Nsocc
   -------------------------------------------------------
     A        237     237       0       0       0       0
   -------------------------------------------------------
    Total     237     237      21      21      21       0
   -------------------------------------------------------

  ==> Integral Setup <==

  ==> DiskDFJK: Density-Fitted J/K Matrices <==

    J tasked:                  Yes
    K tasked:                  Yes
    wK tasked:                  No
    OpenMP threads:              4
    Integrals threads:           4
    Memory [MiB]:            22888
    Algorithm:                Core
    Integral Cache:           LOAD
    Schwarz Cutoff:          1E-12
    Fitting Condition:       1E-10

   => Auxiliary Basis Set <=

  Basis Set: (AUG-CC-PVDZ AUX)
    Blend: AUG-CC-PVDZ-JKFIT
    Number of shells: 304
    Number of basis function: 900
    Number of Cartesian functions: 1036
    Spherical Harmonics?: true
    Max angular momentum: 3

  Minimum eigenvalue in the overlap matrix is 2.3314778976E-06.
  Using Symmetric Orthogonalization.

  SCF Guess: Superposition of Atomic Densities via on-the-fly atomic UHF.

  ==> Iterations <==

                           Total Energy        Delta E     RMS |[F,P]|

   @DF-RHF iter SAD:  -230.14552592906301   -2.30146e+02   0.00000e+00 
   @DF-RHF iter   1:  -230.55384635878744   -4.08320e-01   2.18587e-03 DIIS
   @DF-RHF iter   2:  -230.69331888309435   -1.39473e-01   1.06830e-03 DIIS
   @DF-RHF iter   3:  -230.72745859123842   -3.41397e-02   1.70666e-04 DIIS
   @DF-RHF iter   4:  -230.72890519020740   -1.44660e-03   1.83909e-05 DIIS
   @DF-RHF iter   5:  -230.72892630662315   -2.11164e-05   3.44839e-06 DIIS
   @DF-RHF iter   6:  -230.72892708254142   -7.75918e-07   3.67169e-07 DIIS
   @DF-RHF iter   7:  -230.72892709213468   -9.59326e-09   4.85097e-08 DIIS
   @DF-RHF iter   8:  -230.72892709233315   -1.98469e-10   1.16782e-08 DIIS
   @DF-RHF iter   9:  -230.72892709234441   -1.12550e-11   4.01200e-09 DIIS
  Energy and wave function converged.


  ==> Post-Iterations <==

    Orbital Energies [Eh]
    ---------------------

    Doubly Occupied:                                                      

       1A    -11.242366     2A    -11.241919     3A    -11.241678  
       4A    -11.240677     5A    -11.240460     6A    -11.239969  
       7A     -1.152680     8A     -1.017118     9A     -1.016732  
      10A     -0.825602    11A     -0.825427    12A     -0.710107  
      13A     -0.644749    14A     -0.619349    15A     -0.588524  
      16A     -0.588077    17A     -0.501766    18A     -0.494527  
      19A     -0.494422    20A     -0.336269    21A     -0.336088  

    Virtual:                                                              

      22A      0.033440    23A      0.042272    24A      0.042369  
      25A      0.051377    26A      0.057428    27A      0.057472  
      28A      0.075165    29A      0.076340    30A      0.107055  
      31A      0.107314    32A      0.112027    33A      0.121563  
      34A      0.130475    35A      0.139278    36A      0.142816  
      37A      0.145559    38A      0.147905    39A      0.152864  
      40A      0.153167    41A      0.159618    42A      0.161084  
      43A      0.166445    44A      0.181397    45A      0.184470  
      46A      0.190376    47A      0.190705    48A      0.190909  
      49A      0.192815    50A      0.193782    51A      0.200554  
      52A      0.205866    53A      0.238761    54A      0.266763  
      55A      0.295312    56A      0.297933    57A      0.305731  
      58A      0.309713    59A      0.311527    60A      0.340258  
      61A      0.344772    62A      0.355001    63A      0.355360  
      64A      0.364620    65A      0.379055    66A      0.381592  
      67A      0.386455    68A      0.404688    69A      0.414867  
      70A      0.425296    71A      0.425743    72A      0.431900  
      73A      0.432866    74A      0.442587    75A      0.443044  
      76A      0.456189    77A      0.469483    78A      0.491848  
      79A      0.498606    80A      0.499644    81A      0.528300  
      82A      0.531590    83A      0.537894    84A      0.543306  
      85A      0.561302    86A      0.567731    87A      0.571497  
      88A      0.587920    89A      0.589854    90A      0.590474  
      91A      0.591107    92A      0.595022    93A      0.598565  
      94A      0.610056    95A      0.631624    96A      0.639958  
      97A      0.661393    98A      0.662383    99A      0.676643  
     100A      0.691261   101A      0.692226   102A      0.692230  
     103A      0.696344   104A      0.697441   105A      0.710551  
     106A      0.732223   107A      0.754714   108A      0.756702  
     109A      0.764782   110A      0.784685   111A      0.788784  
     112A      0.795969   113A      0.797518   114A      0.803782  
     115A      0.824997   116A      0.827045   117A      0.830351  
     118A      0.858642   119A      0.860895   120A      0.860951  
     121A      0.895304   122A      0.898018   123A      0.916193  
     124A      0.918415   125A      0.933234   126A      0.951272  
     127A      0.958925   128A      0.962379   129A      0.979143  
     130A      0.979502   131A      1.012812   132A      1.030853  
     133A      1.050556   134A      1.079579   135A      1.080852  
     136A      1.103202   137A      1.107003   138A      1.121911  
     139A      1.179884   140A      1.198817   141A      1.277257  
     142A      1.320971   143A      1.353028   144A      1.357309  
     145A      1.371509   146A      1.435850   147A      1.510942  
     148A      1.516752   149A      1.536372   150A      1.538508  
     151A      1.538734   152A      1.579238   153A      1.584301  
     154A      1.613191   155A      1.627157   156A      1.634003  
     157A      1.640319   158A      1.645302   159A      1.649020  
     160A      1.680535   161A      1.698846   162A      1.713937  
     163A      1.731731   164A      1.733132   165A      1.763909  
     166A      1.780457   167A      1.791381   168A      1.832910  
     169A      1.836018   170A      1.844661   171A      1.878342  
     172A      1.883955   173A      1.909420   174A      1.934004  
     175A      1.946242   176A      1.953020   177A      1.967148  
     178A      1.968463   179A      1.968484   180A      2.002351  
     181A      2.005001   182A      2.018087   183A      2.018564  
     184A      2.061203   185A      2.068866   186A      2.087838  
     187A      2.111062   188A      2.128091   189A      2.141926  
     190A      2.162866   191A      2.175986   192A      2.213544  
     193A      2.225513   194A      2.229171   195A      2.234360  
     196A      2.268450   197A      2.284897   198A      2.286489  
     199A      2.297967   200A      2.356639   201A      2.363792  
     202A      2.379036   203A      2.413998   204A      2.444589  
     205A      2.451881   206A      2.504818   207A      2.508089  
     208A      2.524799   209A      2.530737   210A      2.602686  
     211A      2.623354   212A      2.705265   213A      2.737263  
     214A      2.806721   215A      2.810120   216A      2.817353  
     217A      2.839008   218A      2.893842   219A      2.985068  
     220A      2.986960   221A      2.994666   222A      3.149735  
     223A      3.159232   224A      3.165737   225A      3.184664  
     226A      3.251110   227A      3.372992   228A      3.388771  
     229A      3.572014   230A      3.584808   231A      3.912674  
     232A      4.869186   233A      6.857142   234A     20.398084  
     235A     20.850511   236A     21.175174   237A    138.060394  

    Final Occupation by Irrep:
              A 
    DOCC [    21 ]

  @DF-RHF Final Energy:  -230.72892709234441

   => Energetics <=

    Nuclear Repulsion Energy =            203.6538916079341277
    One-Electron Energy =                -713.5686310244915376
    Two-Electron Energy =                 279.1858123242129750
    Total Energy =                       -230.7289270923444064

Computation Completed


Properties will be evaluated at   0.000000,   0.000000,   0.000000 [a0]

Properties computed using the SCF density matrix

  Nuclear Dipole Moment: [e a0]
     X:     0.0000      Y:    -0.0000      Z:    80.0212

  Electronic Dipole Moment: [e a0]
     X:     0.0000      Y:     0.0000      Z:   -80.0193

  Dipole Moment: [e a0]
     X:     0.0000      Y:     0.0000      Z:     0.0019     Total:     0.0019

  Dipole Moment: [D]
     X:     0.0000      Y:     0.0000      Z:     0.0048     Total:     0.0048


*** tstop() called on node51.bme.utexas.edu at Mon Sep  9 20:48:07 2019
Module time:
	user time   =      14.47 seconds =       0.24 minutes
	system time =       0.44 seconds =       0.01 minutes
	total time  =          5 seconds =       0.08 minutes
Total time:
	user time   =      43.15 seconds =       0.72 minutes
	system time =       1.17 seconds =       0.02 minutes
	total time  =         13 seconds =       0.22 minutes

  //>>>>>>>>>>>>>>>>>>>>>>>>>>>>>>>>>>>//
  //            Monomer B HF           //
  //<<<<<<<<<<<<<<<<<<<<<<<<<<<<<<<<<<<//


*** tstart() called on node51.bme.utexas.edu
*** at Mon Sep  9 20:48:07 2019

   => Loading Basis Set <=

    Name: AUG-CC-PVDZ
    Role: ORBITAL
    Keyword: BASIS
    atoms 1-6         entry C          line   178 file /home/xy3866/psi4conda/share/psi4/basis/aug-cc-pvdz.gbs 
    atoms 7-12, 14-15 entry H          line    36 file /home/xy3866/psi4conda/share/psi4/basis/aug-cc-pvdz.gbs 
    atoms 13          entry S          line   698 file /home/xy3866/psi4conda/share/psi4/basis/aug-cc-pvdz.gbs 


         ---------------------------------------------------------
                                   SCF
               by Justin Turney, Rob Parrish, Andy Simmonett
                          and Daniel G. A. Smith
                              RHF Reference
                        4 Threads,  30517 MiB Core
         ---------------------------------------------------------

  ==> Geometry <==

    Molecular point group: c1
    Full point group: C2v

    Geometry (in Angstrom), charge = 0, multiplicity = 1:

       Center              X                  Y                   Z               Mass       
    ------------   -----------------  -----------------  -----------------  -----------------
      Gh(C)           0.000000000000    -1.393658000000     1.008874881301    12.000000000000
      Gh(C)           1.207737000000    -0.696816000000     1.007649881301    12.000000000000
      Gh(C)           1.207737000000     0.696816000000     1.007649881301    12.000000000000
      Gh(C)           0.000000000000     1.393658000000     1.008874881301    12.000000000000
      Gh(C)          -1.207737000000     0.696816000000     1.007649881301    12.000000000000
      Gh(C)          -1.207737000000    -0.696816000000     1.007649881301    12.000000000000
      Gh(H)           0.000000000000    -2.475320000000     1.014148881301     1.007825032230
      Gh(H)           2.144314000000    -1.237314000000     1.006750881301     1.007825032230
      Gh(H)           2.144314000000     1.237314000000     1.006750881301     1.007825032230
      Gh(H)           0.000000000000     2.475320000000     1.014148881301     1.007825032230
      Gh(H)          -2.144314000000     1.237314000000     1.006750881301     1.007825032230
      Gh(H)          -2.144314000000    -1.237314000000     1.006750881301     1.007825032230
         S            0.000000000000     0.000000000000    -2.370552018699    31.972071174400
         H            0.000000000000     0.954437000000    -1.434484018699     1.007825032230
         H            0.000000000000    -0.954437000000    -1.434484018699     1.007825032230

  Running in c1 symmetry.

  Rotational constants: A =      0.09427  B =      0.04793  C =      0.04770 [cm^-1]
  Rotational constants: A =   2826.03195  B =   1437.00218  C =   1429.97187 [MHz]
  Nuclear repulsion =   12.944044801570232

  Charge       = 0
  Multiplicity = 1
  Electrons    = 18
  Nalpha       = 9
  Nbeta        = 9

  ==> Algorithm <==

  SCF Algorithm Type is DF.
  DIIS enabled.
  MOM disabled.
  Fractional occupation disabled.
  Guess Type is SAD.
  Energy threshold   = 1.00e-08
  Density threshold  = 1.00e-08
  Integral threshold = 0.00e+00

  ==> Primary Basis <==

  Basis Set: AUG-CC-PVDZ
    Blend: AUG-CC-PVDZ
    Number of shells: 105
    Number of basis function: 237
    Number of Cartesian functions: 251
    Spherical Harmonics?: true
    Max angular momentum: 2

   => Loading Basis Set <=

    Name: (AUG-CC-PVDZ AUX)
    Role: JKFIT
    Keyword: DF_BASIS_SCF
    atoms 1-6         entry C          line   154 file /home/xy3866/psi4conda/share/psi4/basis/aug-cc-pvdz-jkfit.gbs 
    atoms 7-12, 14-15 entry H          line    70 file /home/xy3866/psi4conda/share/psi4/basis/aug-cc-pvdz-jkfit.gbs 
    atoms 13          entry S          line   690 file /home/xy3866/psi4conda/share/psi4/basis/aug-cc-pvdz-jkfit.gbs 

  ==> Pre-Iterations <==

   -------------------------------------------------------
    Irrep   Nso     Nmo     Nalpha   Nbeta   Ndocc  Nsocc
   -------------------------------------------------------
     A        237     237       0       0       0       0
   -------------------------------------------------------
    Total     237     237       9       9       9       0
   -------------------------------------------------------

  ==> Integral Setup <==

  ==> DiskDFJK: Density-Fitted J/K Matrices <==

    J tasked:                  Yes
    K tasked:                  Yes
    wK tasked:                  No
    OpenMP threads:              4
    Integrals threads:           4
    Memory [MiB]:            22888
    Algorithm:                Core
    Integral Cache:           LOAD
    Schwarz Cutoff:          1E-12
    Fitting Condition:       1E-10

   => Auxiliary Basis Set <=

  Basis Set: (AUG-CC-PVDZ AUX)
    Blend: AUG-CC-PVDZ-JKFIT
    Number of shells: 304
    Number of basis function: 900
    Number of Cartesian functions: 1036
    Spherical Harmonics?: true
    Max angular momentum: 3

  Minimum eigenvalue in the overlap matrix is 2.3314778976E-06.
  Using Symmetric Orthogonalization.

  SCF Guess: Superposition of Atomic Densities via on-the-fly atomic UHF.

  ==> Iterations <==

                           Total Energy        Delta E     RMS |[F,P]|

   @DF-RHF iter SAD:  -398.41713736960344   -3.98417e+02   0.00000e+00 
   @DF-RHF iter   1:  -398.66637808815494   -2.49241e-01   7.97301e-04 DIIS
   @DF-RHF iter   2:  -398.69434210750154   -2.79640e-02   2.79978e-04 DIIS
   @DF-RHF iter   3:  -398.69754493882562   -3.20283e-03   7.42686e-05 DIIS
   @DF-RHF iter   4:  -398.69809649682531   -5.51558e-04   1.37013e-05 DIIS
   @DF-RHF iter   5:  -398.69811700751586   -2.05107e-05   1.91989e-06 DIIS
   @DF-RHF iter   6:  -398.69811738569996   -3.78184e-07   5.11428e-07 DIIS
   @DF-RHF iter   7:  -398.69811741312299   -2.74230e-08   1.26635e-07 DIIS
   @DF-RHF iter   8:  -398.69811741479549   -1.67250e-09   1.67366e-08 DIIS
   @DF-RHF iter   9:  -398.69811741482334   -2.78533e-11   3.04224e-09 DIIS
  Energy and wave function converged.


  ==> Post-Iterations <==

    Orbital Energies [Eh]
    ---------------------

    Doubly Occupied:                                                      

       1A    -91.971255     2A     -8.973146     3A     -6.655214  
       4A     -6.654215     5A     -6.651724     6A     -0.985175  
       7A     -0.587547     8A     -0.503731     9A     -0.384825  

    Virtual:                                                              

      10A      0.019443    11A      0.035314    12A      0.037609  
      13A      0.054095    14A      0.056080    15A      0.056772  
      16A      0.074040    17A      0.076585    18A      0.082021  
      19A      0.105142    20A      0.108081    21A      0.111327  
      22A      0.122277    23A      0.123260    24A      0.139296  
      25A      0.142785    26A      0.143359    27A      0.148007  
      28A      0.150570    29A      0.151520    30A      0.151914  
      31A      0.166573    32A      0.177847    33A      0.181403  
      34A      0.187333    35A      0.187836    36A      0.192783  
      37A      0.195110    38A      0.206803    39A      0.209127  
      40A      0.221041    41A      0.232316    42A      0.258861  
      43A      0.259139    44A      0.268818    45A      0.271931  
      46A      0.278204    47A      0.307508    48A      0.321467  
      49A      0.333772    50A      0.335609    51A      0.354236  
      52A      0.355137    53A      0.368015    54A      0.377573  
      55A      0.395874    56A      0.405206    57A      0.419149  
      58A      0.425402    59A      0.427667    60A      0.434111  
      61A      0.444171    62A      0.458877    63A      0.460606  
      64A      0.462884    65A      0.471139    66A      0.471663  
      67A      0.479880    68A      0.484590    69A      0.495580  
      70A      0.512010    71A      0.526364    72A      0.532039  
      73A      0.535007    74A      0.543581    75A      0.546639  
      76A      0.561097    77A      0.601001    78A      0.604933  
      79A      0.612991    80A      0.613144    81A      0.631487  
      82A      0.632528    83A      0.651763    84A      0.668645  
      85A      0.681186    86A      0.692773    87A      0.692929  
      88A      0.717852    89A      0.720189    90A      0.745533  
      91A      0.746161    92A      0.755297    93A      0.762555  
      94A      0.776085    95A      0.780286    96A      0.784165  
      97A      0.805870    98A      0.807923    99A      0.835864  
     100A      0.855657   101A      0.867385   102A      0.879265  
     103A      0.883330   104A      0.888105   105A      0.889258  
     106A      0.897478   107A      0.898115   108A      0.898822  
     109A      0.903100   110A      0.922896   111A      0.930852  
     112A      0.956402   113A      0.976006   114A      0.982316  
     115A      1.001216   116A      1.011166   117A      1.014761  
     118A      1.032084   119A      1.043424   120A      1.050936  
     121A      1.059511   122A      1.097695   123A      1.110195  
     124A      1.112034   125A      1.117448   126A      1.131680  
     127A      1.174188   128A      1.177811   129A      1.217674  
     130A      1.223689   131A      1.234708   132A      1.244003  
     133A      1.259479   134A      1.262694   135A      1.284000  
     136A      1.336655   137A      1.373839   138A      1.394946  
     139A      1.395547   140A      1.474607   141A      1.476969  
     142A      1.482143   143A      1.487483   144A      1.579998  
     145A      1.661296   146A      1.807425   147A      1.817817  
     148A      1.925857   149A      1.945407   150A      1.947959  
     151A      2.039721   152A      2.062252   153A      2.130745  
     154A      2.140661   155A      2.144108   156A      2.174224  
     157A      2.220414   158A      2.227066   159A      2.230114  
     160A      2.245460   161A      2.249577   162A      2.262115  
     163A      2.281785   164A      2.292682   165A      2.309316  
     166A      2.328105   167A      2.335901   168A      2.338847  
     169A      2.344232   170A      2.375279   171A      2.377782  
     172A      2.463180   173A      2.496746   174A      2.496954  
     175A      2.500802   176A      2.501282   177A      2.538550  
     178A      2.548559   179A      2.570363   180A      2.599695  
     181A      2.600526   182A      2.619628   183A      2.646119  
     184A      2.649491   185A      2.661020   186A      2.671967  
     187A      2.699696   188A      2.718852   189A      2.743560  
     190A      2.787389   191A      2.862920   192A      2.865942  
     193A      2.866233   194A      2.868025   195A      2.874382  
     196A      2.906553   197A      2.934919   198A      2.940892  
     199A      2.986710   200A      3.219257   201A      3.250716  
     202A      3.329358   203A      3.400756   204A      3.415171  
     205A      3.418089   206A      3.424881   207A      3.429559  
     208A      3.467351   209A      3.474589   210A      3.509453  
     211A      3.512730   212A      3.535376   213A      3.586701  
     214A      3.760577   215A      3.940152   216A      3.963226  
     217A      3.977081   218A      3.984651   219A      4.101476  
     220A      4.373588   221A      4.394175   222A      4.662662  
     223A      4.838478   224A      4.847482   225A      5.316643  
     226A      5.446103   227A      5.449955   228A      5.465278  
     229A      5.468515   230A      5.639864   231A      6.100524  
     232A     17.993131   233A     18.382882   234A     18.398845  
     235A     18.998120   236A     19.000931   237A     20.699646  

    Final Occupation by Irrep:
              A 
    DOCC [     9 ]

  @DF-RHF Final Energy:  -398.69811741482334

   => Energetics <=

    Nuclear Repulsion Energy =             12.9440448015702323
    One-Electron Energy =                -576.5506590234407440
    Two-Electron Energy =                 164.9084968070471291
    Total Energy =                       -398.6981174148233436

Computation Completed


Properties will be evaluated at   0.000000,   0.000000,   0.000000 [a0]

Properties computed using the SCF density matrix

  Nuclear Dipole Moment: [e a0]
     X:     0.0000      Y:     0.0000      Z:   -77.0967

  Electronic Dipole Moment: [e a0]
     X:     0.0000      Y:    -0.0000      Z:    77.5397

  Dipole Moment: [e a0]
     X:     0.0000      Y:    -0.0000      Z:     0.4430     Total:     0.4430

  Dipole Moment: [D]
     X:     0.0000      Y:    -0.0000      Z:     1.1260     Total:     1.1260


*** tstop() called on node51.bme.utexas.edu at Mon Sep  9 20:48:10 2019
Module time:
	user time   =      10.99 seconds =       0.18 minutes
	system time =       0.35 seconds =       0.01 minutes
	total time  =          3 seconds =       0.05 minutes
Total time:
	user time   =      54.16 seconds =       0.90 minutes
	system time =       1.52 seconds =       0.03 minutes
	total time  =         16 seconds =       0.27 minutes
  Constructing Basis Sets for SAPT...

   => Loading Basis Set <=

    Name: (AUG-CC-PVDZ AUX)
    Role: RIFIT
    Keyword: DF_BASIS_SAPT
    atoms 1-6         entry C          line   112 file /home/xy3866/psi4conda/share/psi4/basis/aug-cc-pvdz-ri.gbs 
    atoms 7-12, 14-15 entry H          line    30 file /home/xy3866/psi4conda/share/psi4/basis/aug-cc-pvdz-ri.gbs 
    atoms 13          entry S          line   516 file /home/xy3866/psi4conda/share/psi4/basis/aug-cc-pvdz-ri.gbs 


  //>>>>>>>>>>>>>>>>>>>>>>>>>>>>>>>>>>>//
  //               SAPT2+              //
  //<<<<<<<<<<<<<<<<<<<<<<<<<<<<<<<<<<<//


*** tstart() called on node51.bme.utexas.edu
*** at Mon Sep  9 20:48:11 2019

        SAPT2+  
    Ed Hohenstein
     6 June 2009

      Orbital Information
  --------------------------
    NSO        =       237
    NMO        =       237
    NRI        =       708
    NOCC A     =        21
    NOCC B     =         9
    FOCC A     =         6
    FOCC B     =         5
    NVIR A     =       216
    NVIR B     =       228

    Estimated memory usage: 844.6 MB

    Natural Orbital Cutoff:   1.000E-06
    Disp(T3) Truncation:            Yes
    CCD (vv|vv) Truncation:         Yes
    MBPT T2 Truncation:             Yes

    Monomer A: 48 virtual orbitals dropped
    Monomer B: 181 virtual orbitals dropped

    Elst10,r            =    -0.010061800442 [Eh]
    Exch10 (S^2)        =     0.022502237136 [Eh]
    Exch10              =     0.022611983462 [Eh]
    Ind20,r (A<-B)      =    -0.003913746826 [Eh]
    Ind20,r (B<-A)      =    -0.003339612580 [Eh]
    Ind20,r             =    -0.007253359405 [Eh]
    Exch-Ind20,r (A<-B) =     0.002788542514 [Eh]
    Exch-Ind20,r (B<-A) =     0.003110348453 [Eh]
    Exch-Ind20,r        =     0.005898890967 [Eh]
    Disp20              =    -0.015071169013 [Eh]
    Disp20 (NO)         =    -0.014036580187 [Eh]
    Exch-Disp20         =     0.002291639748 [Eh]
    Elst12,r            =     0.000088964346 [Eh]
    Exch11              =     0.001197655611 [Eh]
    Exch12              =    -0.000019871378 [Eh]
    Ind22               =    -0.000560874984 [Eh]
    Disp21              =     0.003462377045 [Eh]
    Disp22 (SDQ)        =     0.000348241584 [Eh]

    (i =   1 of   4)         10 seconds
    (i =   2 of   4)         20 seconds
    (i =   3 of   4)         30 seconds
    (i =   4 of   4)         41 seconds

    Disp220 (T)         =    -0.001432785008 [Eh]

    (i =   1 of  15)          0 seconds
    (i =   2 of  15)          0 seconds
    (i =   3 of  15)          1 seconds
    (i =   4 of  15)          1 seconds
    (i =   5 of  15)          1 seconds
    (i =   6 of  15)          2 seconds
    (i =   7 of  15)          2 seconds
    (i =   8 of  15)          3 seconds
    (i =   9 of  15)          3 seconds
    (i =  10 of  15)          4 seconds
    (i =  11 of  15)          4 seconds
    (i =  12 of  15)          4 seconds
    (i =  13 of  15)          5 seconds
    (i =  14 of  15)          5 seconds
    (i =  15 of  15)          6 seconds

    Disp202 (T)         =    -0.000938350161 [Eh]

    Disp22 (T)          =    -0.002371135169 [Eh]

    Est. Disp220 (T)    =    -0.001538390743 [Eh]
    Est. Disp202 (T)    =    -0.001007512776 [Eh]

    Est. Disp22 (T)     =    -0.002545903519 [Eh]

    SAPT Results 
  --------------------------------------------------------------------------------------------------------
    Electrostatics                 -9.97283610 [mEh]      -6.25804913 [kcal/mol]     -26.18367756 [kJ/mol]
      Elst10,r                    -10.06180044 [mEh]      -6.31387510 [kcal/mol]     -26.41725342 [kJ/mol]
      Elst12,r                      0.08896435 [mEh]       0.05582597 [kcal/mol]       0.23357586 [kJ/mol]

    Exchange                       23.78976769 [mEh]      14.92830461 [kcal/mol]      62.46002648 [kJ/mol]
      Exch10                       22.61198346 [mEh]      14.18923384 [kcal/mol]      59.36775440 [kJ/mol]
      Exch10(S^2)                  22.50223714 [mEh]      14.12036698 [kcal/mol]      59.07961546 [kJ/mol]
      Exch11(S^2)                   1.19765561 [mEh]       0.75154024 [kcal/mol]       3.14444437 [kJ/mol]
      Exch12(S^2)                  -0.01987138 [mEh]      -0.01246948 [kcal/mol]      -0.05217230 [kJ/mol]

    Induction                      -3.93073914 [mEh]      -2.46657605 [kcal/mol]     -10.32015419 [kJ/mol]
      Ind20,r                      -7.25335941 [mEh]      -4.55155174 [kcal/mol]     -19.04369250 [kJ/mol]
      Ind22                        -0.56087498 [mEh]      -0.35195437 [kcal/mol]      -1.47257707 [kJ/mol]
      Exch-Ind20,r                  5.89889097 [mEh]       3.70160997 [kcal/mol]      15.48753610 [kJ/mol]
      Exch-Ind22                    0.45613904 [mEh]       0.28623157 [kcal/mol]       1.19759288 [kJ/mol]
      delta HF,r (2)               -2.47153475 [mEh]      -1.55091147 [kcal/mol]      -6.48901360 [kJ/mol]

    Dispersion                    -11.51481416 [mEh]      -7.22565497 [kcal/mol]     -30.23214040 [kJ/mol]
      Disp20                      -15.07116901 [mEh]      -9.45730134 [kcal/mol]     -39.56934879 [kJ/mol]
      Disp21                        3.46237705 [mEh]       2.17267440 [kcal/mol]       9.09046968 [kJ/mol]
      Disp22 (SDQ)                  0.34824158 [mEh]       0.21852489 [kcal/mol]       0.91430815 [kJ/mol]
      Disp22 (T)                   -2.37113517 [mEh]      -1.48790978 [kcal/mol]      -6.22541453 [kJ/mol]
      Est. Disp22 (T)              -2.54590352 [mEh]      -1.59757858 [kcal/mol]      -6.68426877 [kJ/mol]
      Exch-Disp20                   2.29163975 [mEh]       1.43802565 [kcal/mol]       6.01669933 [kJ/mol]

  Total HF                          8.72417983 [mEh]       5.47450549 [kcal/mol]      22.90533098 [kJ/mol]
  Total SAPT0                      -4.05534944 [mEh]      -2.54477019 [kcal/mol]     -10.64731848 [kJ/mol]
  Total SAPT2                      -2.89333681 [mEh]      -1.81559626 [kcal/mol]      -7.59645474 [kJ/mol]
  Total SAPT2+                     -1.62862170 [mEh]      -1.02197554 [kcal/mol]      -4.27594567 [kJ/mol]

  Special recipe for scaled SAPT0 (see Manual):
    Electrostatics sSAPT0         -10.06180044 [mEh]      -6.31387510 [kcal/mol]     -26.41725342 [kJ/mol]
    Exchange sSAPT0                22.61198346 [mEh]      14.18923384 [kcal/mol]      59.36775440 [kJ/mol]
    Induction sSAPT0               -3.73927260 [mEh]      -2.34642898 [kcal/mol]      -9.81745886 [kJ/mol]
    Dispersion sSAPT0             -12.74583560 [mEh]      -7.99813259 [kcal/mol]     -33.46418675 [kJ/mol]
  Total sSAPT0                     -3.93492518 [mEh]      -2.46920283 [kcal/mol]     -10.33114463 [kJ/mol]
  --------------------------------------------------------------------------------------------------------

*** tstop() called on node51.bme.utexas.edu at Mon Sep  9 20:50:00 2019
Module time:
	user time   =     414.23 seconds =       6.90 minutes
	system time =      14.79 seconds =       0.25 minutes
	total time  =        109 seconds =       1.82 minutes
Total time:
	user time   =     468.92 seconds =       7.82 minutes
	system time =      16.35 seconds =       0.27 minutes
	total time  =        126 seconds =       2.10 minutes

    Psi4 stopped on: Monday, 09 September 2019 08:50PM
    Psi4 wall time for execution: 0:02:05.78

*** Psi4 exiting successfully. Buy a developer a beer!
