
    -----------------------------------------------------------------------
          Psi4: An Open-Source Ab Initio Electronic Structure Package
                               Psi4 1.3.2 release

                         Git: Rev {HEAD} ecbda83 


    R. M. Parrish, L. A. Burns, D. G. A. Smith, A. C. Simmonett,
    A. E. DePrince III, E. G. Hohenstein, U. Bozkaya, A. Yu. Sokolov,
    R. Di Remigio, R. M. Richard, J. F. Gonthier, A. M. James,
    H. R. McAlexander, A. Kumar, M. Saitow, X. Wang, B. P. Pritchard,
    P. Verma, H. F. Schaefer III, K. Patkowski, R. A. King, E. F. Valeev,
    F. A. Evangelista, J. M. Turney, T. D. Crawford, and C. D. Sherrill,
    J. Chem. Theory Comput. 13(7) pp 3185--3197 (2017).
    (doi: 10.1021/acs.jctc.7b00174)


                         Additional Contributions by
    P. Kraus, H. Kruse, M. H. Lechner, M. C. Schieber, R. A. Shaw,
    A. Alenaizan, R. Galvelis, Z. L. Glick, S. Lehtola, and J. P. Misiewicz

    -----------------------------------------------------------------------


    Psi4 started on: Monday, 09 September 2019 08:50PM

    Process ID: 94215
    Host:       node51.bme.utexas.edu
    PSIDATADIR: /home/xy3866/psi4conda/share/psi4
    Memory:     500.0 MiB
    Threads:    4
    
  ==> Input File <==

--------------------------------------------------------------------------
#psi4
#
memory 32 gb

molecule  {
0 1
  C        0.0000000    -1.3936580     1.0640200
  C        1.2077370    -0.6968160     1.0627950
  C        1.2077370     0.6968160     1.0627950
  C        0.0000000     1.3936580     1.0640200
  C       -1.2077370     0.6968160     1.0627950
  C       -1.2077370    -0.6968160     1.0627950
  H        0.0000000    -2.4753200     1.0692940
  H        2.1443140    -1.2373140     1.0618960
  H        2.1443140     1.2373140     1.0618960
  H        0.0000000     2.4753200     1.0692940
  H       -2.1443140     1.2373140     1.0618960
  H       -2.1443140    -1.2373140     1.0618960
--
0 1
  S        0.0000000    -0.0000000    -2.8785086
  H        0.0000000     0.9544370    -1.9424406
  H        0.0000000    -0.9544370    -1.9424406
units angstrom
no_reorient  #important for SAPT in psi4, default
symmetry c1  #important for SAPT in psi4, default
}

set {
basis aug-cc-pVDZ
scf_type DF
freeze_core True
}
energy('sapt2+')
--------------------------------------------------------------------------

  Memory set to  29.802 GiB by Python driver.

  //>>>>>>>>>>>>>>>>>>>>>>>>>>>>>>>>>>>//
  //              Dimer HF             //
  //<<<<<<<<<<<<<<<<<<<<<<<<<<<<<<<<<<<//


*** tstart() called on node51.bme.utexas.edu
*** at Mon Sep  9 20:50:13 2019

   => Loading Basis Set <=

    Name: AUG-CC-PVDZ
    Role: ORBITAL
    Keyword: BASIS
    atoms 1-6         entry C          line   178 file /home/xy3866/psi4conda/share/psi4/basis/aug-cc-pvdz.gbs 
    atoms 7-12, 14-15 entry H          line    36 file /home/xy3866/psi4conda/share/psi4/basis/aug-cc-pvdz.gbs 
    atoms 13          entry S          line   698 file /home/xy3866/psi4conda/share/psi4/basis/aug-cc-pvdz.gbs 


         ---------------------------------------------------------
                                   SCF
               by Justin Turney, Rob Parrish, Andy Simmonett
                          and Daniel G. A. Smith
                              RHF Reference
                        4 Threads,  30517 MiB Core
         ---------------------------------------------------------

  ==> Geometry <==

    Molecular point group: c1
    Full point group: C2v

    Geometry (in Angstrom), charge = 0, multiplicity = 1:

       Center              X                  Y                   Z               Mass       
    ------------   -----------------  -----------------  -----------------  -----------------
         C            0.000000000000    -1.393658000000     1.179701852667    12.000000000000
         C            1.207737000000    -0.696816000000     1.178476852667    12.000000000000
         C            1.207737000000     0.696816000000     1.178476852667    12.000000000000
         C            0.000000000000     1.393658000000     1.179701852667    12.000000000000
         C           -1.207737000000     0.696816000000     1.178476852667    12.000000000000
         C           -1.207737000000    -0.696816000000     1.178476852667    12.000000000000
         H            0.000000000000    -2.475320000000     1.184975852667     1.007825032230
         H            2.144314000000    -1.237314000000     1.177577852667     1.007825032230
         H            2.144314000000     1.237314000000     1.177577852667     1.007825032230
         H            0.000000000000     2.475320000000     1.184975852667     1.007825032230
         H           -2.144314000000     1.237314000000     1.177577852667     1.007825032230
         H           -2.144314000000    -1.237314000000     1.177577852667     1.007825032230
         S            0.000000000000     0.000000000000    -2.762826747333    31.972071174400
         H            0.000000000000     0.954437000000    -1.826758747333     1.007825032230
         H            0.000000000000    -0.954437000000    -1.826758747333     1.007825032230

  Running in c1 symmetry.

  Rotational constants: A =      0.09427  B =      0.03764  C =      0.03750 [cm^-1]
  Rotational constants: A =   2826.03195  B =   1128.55604  C =   1124.21532 [MHz]
  Nuclear repulsion =  313.179997882299972

  Charge       = 0
  Multiplicity = 1
  Electrons    = 60
  Nalpha       = 30
  Nbeta        = 30

  ==> Algorithm <==

  SCF Algorithm Type is DF.
  DIIS enabled.
  MOM disabled.
  Fractional occupation disabled.
  Guess Type is SAD.
  Energy threshold   = 1.00e-08
  Density threshold  = 1.00e-08
  Integral threshold = 0.00e+00

  ==> Primary Basis <==

  Basis Set: AUG-CC-PVDZ
    Blend: AUG-CC-PVDZ
    Number of shells: 105
    Number of basis function: 237
    Number of Cartesian functions: 251
    Spherical Harmonics?: true
    Max angular momentum: 2

   => Loading Basis Set <=

    Name: (AUG-CC-PVDZ AUX)
    Role: JKFIT
    Keyword: DF_BASIS_SCF
    atoms 1-6         entry C          line   154 file /home/xy3866/psi4conda/share/psi4/basis/aug-cc-pvdz-jkfit.gbs 
    atoms 7-12, 14-15 entry H          line    70 file /home/xy3866/psi4conda/share/psi4/basis/aug-cc-pvdz-jkfit.gbs 
    atoms 13          entry S          line   690 file /home/xy3866/psi4conda/share/psi4/basis/aug-cc-pvdz-jkfit.gbs 

  ==> Pre-Iterations <==

   -------------------------------------------------------
    Irrep   Nso     Nmo     Nalpha   Nbeta   Ndocc  Nsocc
   -------------------------------------------------------
     A        237     237       0       0       0       0
   -------------------------------------------------------
    Total     237     237      30      30      30       0
   -------------------------------------------------------

  ==> Integral Setup <==

  ==> DiskDFJK: Density-Fitted J/K Matrices <==

    J tasked:                  Yes
    K tasked:                  Yes
    wK tasked:                  No
    OpenMP threads:              4
    Integrals threads:           4
    Memory [MiB]:            22888
    Algorithm:                Core
    Integral Cache:           SAVE
    Schwarz Cutoff:          1E-12
    Fitting Condition:       1E-10

   => Auxiliary Basis Set <=

  Basis Set: (AUG-CC-PVDZ AUX)
    Blend: AUG-CC-PVDZ-JKFIT
    Number of shells: 304
    Number of basis function: 900
    Number of Cartesian functions: 1036
    Spherical Harmonics?: true
    Max angular momentum: 3

  Minimum eigenvalue in the overlap matrix is 2.3316406408E-06.
  Using Symmetric Orthogonalization.

  SCF Guess: Superposition of Atomic Densities via on-the-fly atomic UHF.

  ==> Iterations <==

                           Total Energy        Delta E     RMS |[F,P]|

   @DF-RHF iter SAD:  -628.64650265419414   -6.28647e+02   0.00000e+00 
   @DF-RHF iter   1:  -629.22550565718132   -5.79003e-01   2.28652e-03 DIIS
   @DF-RHF iter   2:  -629.38995854806012   -1.64453e-01   1.05991e-03 DIIS
   @DF-RHF iter   3:  -629.42413383845530   -3.41753e-02   1.99711e-04 DIIS
   @DF-RHF iter   4:  -629.42626870006700   -2.13486e-03   4.05879e-05 DIIS
   @DF-RHF iter   5:  -629.42636861331641   -9.99132e-05   1.08810e-05 DIIS
   @DF-RHF iter   6:  -629.42637803111688   -9.41780e-06   2.73790e-06 DIIS
   @DF-RHF iter   7:  -629.42637870211081   -6.70994e-07   7.31040e-07 DIIS
   @DF-RHF iter   8:  -629.42637874625962   -4.41488e-08   1.69548e-07 DIIS
   @DF-RHF iter   9:  -629.42637874866398   -2.40436e-09   3.50612e-08 DIIS
   @DF-RHF iter  10:  -629.42637874877028   -1.06297e-10   8.48382e-09 DIIS
  Energy and wave function converged.


  ==> Post-Iterations <==

    Orbital Energies [Eh]
    ---------------------

    Doubly Occupied:                                                      

       1A    -91.955291     2A    -11.250080     3A    -11.249666  
       4A    -11.249346     5A    -11.248403     6A    -11.248127  
       7A    -11.247662     8A     -8.957580     9A     -6.639699  
      10A     -6.638679    11A     -6.636256    12A     -1.161274  
      13A     -1.025324    14A     -1.025140    15A     -0.970592  
      16A     -0.833620    17A     -0.833344    18A     -0.718023  
      19A     -0.652250    20A     -0.627427    21A     -0.596195  
      22A     -0.596113    23A     -0.573614    24A     -0.517232  
      25A     -0.502310    26A     -0.502079    27A     -0.482757  
      28A     -0.372691    29A     -0.345307    30A     -0.343046  

    Virtual:                                                              

      31A      0.032891    32A      0.039999    33A      0.041587  
      34A      0.055205    35A      0.055558    36A      0.059650  
      37A      0.074651    38A      0.078064    39A      0.098427  
      40A      0.099874    41A      0.126795    42A      0.132396  
      43A      0.133701    44A      0.139317    45A      0.141081  
      46A      0.142076    47A      0.147658    48A      0.149372  
      49A      0.149606    50A      0.156849    51A      0.160606  
      52A      0.165592    53A      0.181536    54A      0.186400  
      55A      0.187688    56A      0.187689    57A      0.187821  
      58A      0.189469    59A      0.189928    60A      0.192299  
      61A      0.216062    62A      0.237133    63A      0.239606  
      64A      0.264379    65A      0.264563    66A      0.287221  
      67A      0.292241    68A      0.306498    69A      0.314078  
      70A      0.329986    71A      0.338644    72A      0.339302  
      73A      0.345998    74A      0.359969    75A      0.374304  
      76A      0.380578    77A      0.381586    78A      0.382226  
      79A      0.404516    80A      0.404852    81A      0.406300  
      82A      0.422537    83A      0.427844    84A      0.438296  
      85A      0.438977    86A      0.441292    87A      0.443035  
      88A      0.480034    89A      0.493926    90A      0.510163  
      91A      0.510647    92A      0.520133    93A      0.528244  
      94A      0.528556    95A      0.544708    96A      0.567267  
      97A      0.567504    98A      0.569286    99A      0.584552  
     100A      0.585792   101A      0.590385   102A      0.596018  
     103A      0.598467   104A      0.602165   105A      0.610720  
     106A      0.626984   107A      0.648313   108A      0.671795  
     109A      0.671817   110A      0.684113   111A      0.686900  
     112A      0.689490   113A      0.698496   114A      0.704115  
     115A      0.715481   116A      0.716408   117A      0.720935  
     118A      0.728287   119A      0.757175   120A      0.773675  
     121A      0.775741   122A      0.780882   123A      0.783064  
     124A      0.783732   125A      0.851947   126A      0.853579  
     127A      0.854189   128A      0.857273   129A      0.888551  
     130A      0.891343   131A      0.917713   132A      0.919064  
     133A      0.935555   134A      0.939416   135A      0.939656  
     136A      0.943442   137A      0.969679   138A      0.969965  
     139A      0.978755   140A      0.985034   141A      0.999485  
     142A      1.015581   143A      1.023086   144A      1.072999  
     145A      1.092461   146A      1.096809   147A      1.103631  
     148A      1.107063   149A      1.153339   150A      1.175706  
     151A      1.192350   152A      1.213458   153A      1.222761  
     154A      1.230099   155A      1.244519   156A      1.293698  
     157A      1.324449   158A      1.349195   159A      1.350363  
     160A      1.423074   161A      1.496305   162A      1.502619  
     163A      1.528056   164A      1.528289   165A      1.530939  
     166A      1.532826   167A      1.542768   168A      1.578796  
     169A      1.606891   170A      1.622042   171A      1.624335  
     172A      1.633850   173A      1.634311   174A      1.656205  
     175A      1.686105   176A      1.708285   177A      1.710207  
     178A      1.717673   179A      1.733675   180A      1.761289  
     181A      1.786285   182A      1.786984   183A      1.797452  
     184A      1.853717   185A      1.862109   186A      1.901765  
     187A      1.925201   188A      1.926714   189A      1.947149  
     190A      1.961038   191A      1.961569   192A      1.975199  
     193A      1.980505   194A      1.983031   195A      1.991601  
     196A      2.009205   197A      2.046935   198A      2.102234  
     199A      2.104457   200A      2.109151   201A      2.133380  
     202A      2.152931   203A      2.193389   204A      2.199842  
     205A      2.208401   206A      2.219145   207A      2.236099  
     208A      2.260396   209A      2.271977   210A      2.291032  
     211A      2.356575   212A      2.370345   213A      2.372706  
     214A      2.403154   215A      2.434412   216A      2.448696  
     217A      2.493423   218A      2.540032   219A      2.615122  
     220A      2.680317   221A      2.788566   222A      2.792003  
     223A      2.798016   224A      2.808193   225A      2.811764  
     226A      2.969910   227A      2.976792   228A      2.977613  
     229A      3.139868   230A      3.141503   231A      3.152985  
     232A      3.164828   233A      3.381259   234A      3.559029  
     235A      3.560680   236A      3.884814   237A      4.853006  

    Final Occupation by Irrep:
              A 
    DOCC [    30 ]

  @DF-RHF Final Energy:  -629.42637874877028

   => Energetics <=

    Nuclear Repulsion Energy =            313.1799978822999719
    One-Electron Energy =               -1483.2144983933060303
    Two-Electron Energy =                 540.6081217622358963
    Total Energy =                       -629.4263787487702757

Computation Completed


Properties will be evaluated at   0.000000,   0.000000,   0.000000 [a0]

Properties computed using the SCF density matrix

  Nuclear Dipole Moment: [e a0]
     X:     0.0000      Y:    -0.0000      Z:     3.1396

  Electronic Dipole Moment: [e a0]
     X:     0.0000      Y:    -0.0000      Z:    -2.5118

  Dipole Moment: [e a0]
     X:     0.0000      Y:    -0.0000      Z:     0.6278     Total:     0.6278

  Dipole Moment: [D]
     X:     0.0000      Y:    -0.0000      Z:     1.5956     Total:     1.5956


*** tstop() called on node51.bme.utexas.edu at Mon Sep  9 20:50:22 2019
Module time:
	user time   =      28.08 seconds =       0.47 minutes
	system time =       0.81 seconds =       0.01 minutes
	total time  =          9 seconds =       0.15 minutes
Total time:
	user time   =      28.08 seconds =       0.47 minutes
	system time =       0.81 seconds =       0.01 minutes
	total time  =          9 seconds =       0.15 minutes

  //>>>>>>>>>>>>>>>>>>>>>>>>>>>>>>>>>>>//
  //            Monomer A HF           //
  //<<<<<<<<<<<<<<<<<<<<<<<<<<<<<<<<<<<//


*** tstart() called on node51.bme.utexas.edu
*** at Mon Sep  9 20:50:22 2019

   => Loading Basis Set <=

    Name: AUG-CC-PVDZ
    Role: ORBITAL
    Keyword: BASIS
    atoms 1-6         entry C          line   178 file /home/xy3866/psi4conda/share/psi4/basis/aug-cc-pvdz.gbs 
    atoms 7-12, 14-15 entry H          line    36 file /home/xy3866/psi4conda/share/psi4/basis/aug-cc-pvdz.gbs 
    atoms 13          entry S          line   698 file /home/xy3866/psi4conda/share/psi4/basis/aug-cc-pvdz.gbs 


         ---------------------------------------------------------
                                   SCF
               by Justin Turney, Rob Parrish, Andy Simmonett
                          and Daniel G. A. Smith
                              RHF Reference
                        4 Threads,  30517 MiB Core
         ---------------------------------------------------------

  ==> Geometry <==

    Molecular point group: c1
    Full point group: C2v

    Geometry (in Angstrom), charge = 0, multiplicity = 1:

       Center              X                  Y                   Z               Mass       
    ------------   -----------------  -----------------  -----------------  -----------------
         C            0.000000000000    -1.393658000000     1.179701852667    12.000000000000
         C            1.207737000000    -0.696816000000     1.178476852667    12.000000000000
         C            1.207737000000     0.696816000000     1.178476852667    12.000000000000
         C            0.000000000000     1.393658000000     1.179701852667    12.000000000000
         C           -1.207737000000     0.696816000000     1.178476852667    12.000000000000
         C           -1.207737000000    -0.696816000000     1.178476852667    12.000000000000
         H            0.000000000000    -2.475320000000     1.184975852667     1.007825032230
         H            2.144314000000    -1.237314000000     1.177577852667     1.007825032230
         H            2.144314000000     1.237314000000     1.177577852667     1.007825032230
         H            0.000000000000     2.475320000000     1.184975852667     1.007825032230
         H           -2.144314000000     1.237314000000     1.177577852667     1.007825032230
         H           -2.144314000000    -1.237314000000     1.177577852667     1.007825032230
      Gh(S)           0.000000000000     0.000000000000    -2.762826747333    31.972071174400
      Gh(H)           0.000000000000     0.954437000000    -1.826758747333     1.007825032230
      Gh(H)           0.000000000000    -0.954437000000    -1.826758747333     1.007825032230

  Running in c1 symmetry.

  Rotational constants: A =      0.09427  B =      0.03764  C =      0.03750 [cm^-1]
  Rotational constants: A =   2826.03195  B =   1128.55604  C =   1124.21532 [MHz]
  Nuclear repulsion =  203.653891607934128

  Charge       = 0
  Multiplicity = 1
  Electrons    = 42
  Nalpha       = 21
  Nbeta        = 21

  ==> Algorithm <==

  SCF Algorithm Type is DF.
  DIIS enabled.
  MOM disabled.
  Fractional occupation disabled.
  Guess Type is SAD.
  Energy threshold   = 1.00e-08
  Density threshold  = 1.00e-08
  Integral threshold = 0.00e+00

  ==> Primary Basis <==

  Basis Set: AUG-CC-PVDZ
    Blend: AUG-CC-PVDZ
    Number of shells: 105
    Number of basis function: 237
    Number of Cartesian functions: 251
    Spherical Harmonics?: true
    Max angular momentum: 2

   => Loading Basis Set <=

    Name: (AUG-CC-PVDZ AUX)
    Role: JKFIT
    Keyword: DF_BASIS_SCF
    atoms 1-6         entry C          line   154 file /home/xy3866/psi4conda/share/psi4/basis/aug-cc-pvdz-jkfit.gbs 
    atoms 7-12, 14-15 entry H          line    70 file /home/xy3866/psi4conda/share/psi4/basis/aug-cc-pvdz-jkfit.gbs 
    atoms 13          entry S          line   690 file /home/xy3866/psi4conda/share/psi4/basis/aug-cc-pvdz-jkfit.gbs 

  ==> Pre-Iterations <==

   -------------------------------------------------------
    Irrep   Nso     Nmo     Nalpha   Nbeta   Ndocc  Nsocc
   -------------------------------------------------------
     A        237     237       0       0       0       0
   -------------------------------------------------------
    Total     237     237      21      21      21       0
   -------------------------------------------------------

  ==> Integral Setup <==

  ==> DiskDFJK: Density-Fitted J/K Matrices <==

    J tasked:                  Yes
    K tasked:                  Yes
    wK tasked:                  No
    OpenMP threads:              4
    Integrals threads:           4
    Memory [MiB]:            22888
    Algorithm:                Core
    Integral Cache:           LOAD
    Schwarz Cutoff:          1E-12
    Fitting Condition:       1E-10

   => Auxiliary Basis Set <=

  Basis Set: (AUG-CC-PVDZ AUX)
    Blend: AUG-CC-PVDZ-JKFIT
    Number of shells: 304
    Number of basis function: 900
    Number of Cartesian functions: 1036
    Spherical Harmonics?: true
    Max angular momentum: 3

  Minimum eigenvalue in the overlap matrix is 2.3316406408E-06.
  Using Symmetric Orthogonalization.

  SCF Guess: Superposition of Atomic Densities via on-the-fly atomic UHF.

  ==> Iterations <==

                           Total Energy        Delta E     RMS |[F,P]|

   @DF-RHF iter SAD:  -230.14552349936440   -2.30146e+02   0.00000e+00 
   @DF-RHF iter   1:  -230.55319803219172   -4.07675e-01   2.18377e-03 DIIS
   @DF-RHF iter   2:  -230.69278077333527   -1.39583e-01   1.06826e-03 DIIS
   @DF-RHF iter   3:  -230.72692111348175   -3.41403e-02   1.70315e-04 DIIS
   @DF-RHF iter   4:  -230.72836510314630   -1.44399e-03   1.82677e-05 DIIS
   @DF-RHF iter   5:  -230.72838596953665   -2.08664e-05   3.43564e-06 DIIS
   @DF-RHF iter   6:  -230.72838674136318   -7.71827e-07   3.68054e-07 DIIS
   @DF-RHF iter   7:  -230.72838675088769   -9.52451e-09   5.76393e-08 DIIS
   @DF-RHF iter   8:  -230.72838675109622   -2.08530e-10   2.34566e-08 DIIS
   @DF-RHF iter   9:  -230.72838675112115   -2.49258e-11   5.30301e-09 DIIS
  Energy and wave function converged.


  ==> Post-Iterations <==

    Orbital Energies [Eh]
    ---------------------

    Doubly Occupied:                                                      

       1A    -11.242285     2A    -11.241785     3A    -11.241663  
       4A    -11.240563     5A    -11.240444     6A    -11.239908  
       7A     -1.152853     8A     -1.017322     9A     -1.016931  
      10A     -0.825791    11A     -0.825621    12A     -0.710330  
      13A     -0.644916    14A     -0.619558    15A     -0.588748  
      16A     -0.588319    17A     -0.501757    18A     -0.494727  
      19A     -0.494628    20A     -0.336386    21A     -0.336147  

    Virtual:                                                              

      22A      0.032800    23A      0.042257    24A      0.042415  
      25A      0.049345    26A      0.057424    27A      0.057454  
      28A      0.075200    29A      0.076237    30A      0.106791  
      31A      0.107117    32A      0.107443    33A      0.120687  
      34A      0.127264    35A      0.139377    36A      0.144849  
      37A      0.145963    38A      0.146114    39A      0.152947  
      40A      0.152964    41A      0.157202    42A      0.159851  
      43A      0.166912    44A      0.177260    45A      0.184362  
      46A      0.190858    47A      0.190860    48A      0.190880  
      49A      0.195112    50A      0.195167    51A      0.196083  
      52A      0.203629    53A      0.226586    54A      0.266740  
      55A      0.290594    56A      0.299648    57A      0.300356  
      58A      0.309551    59A      0.311282    60A      0.335462  
      61A      0.345371    62A      0.353084    63A      0.354299  
      64A      0.364210    65A      0.371813    66A      0.381608  
      67A      0.387252    68A      0.390601    69A      0.402415  
      70A      0.411246    71A      0.412928    72A      0.430538  
      73A      0.430982    74A      0.442931    75A      0.442950  
      76A      0.461260    77A      0.462913    78A      0.486829  
      79A      0.490265    80A      0.497244    81A      0.505347  
      82A      0.508375    83A      0.531502    84A      0.539222  
      85A      0.546367    86A      0.572152    87A      0.573081  
      88A      0.577330    89A      0.577530    90A      0.586395  
      91A      0.591114    92A      0.594298    93A      0.594967  
      94A      0.604921    95A      0.621313    96A      0.632202  
      97A      0.634622    98A      0.646824    99A      0.651090  
     100A      0.673673   101A      0.688504   102A      0.693800  
     103A      0.696385   104A      0.697182   105A      0.697701  
     106A      0.726067   107A      0.730416   108A      0.738465  
     109A      0.746159   110A      0.757294   111A      0.770473  
     112A      0.775090   113A      0.782171   114A      0.790191  
     115A      0.794010   116A      0.798423   117A      0.803181  
     118A      0.841108   119A      0.858490   120A      0.860332  
     121A      0.860364   122A      0.886299   123A      0.893748  
     124A      0.898188   125A      0.932379   126A      0.947890  
     127A      0.948228   128A      0.952458   129A      0.977335  
     130A      0.977471   131A      0.993951   132A      1.020602  
     133A      1.023363   134A      1.033525   135A      1.079520  
     136A      1.089287   137A      1.102003   138A      1.103605  
     139A      1.108844   140A      1.177771   141A      1.198665  
     142A      1.226104   143A      1.261924   144A      1.353630  
     145A      1.357086   146A      1.430410   147A      1.504282  
     148A      1.509043   149A      1.535934   150A      1.537850  
     151A      1.538685   152A      1.546398   153A      1.581505  
     154A      1.582708   155A      1.616234   156A      1.628014  
     157A      1.633106   158A      1.637828   159A      1.641259  
     160A      1.675284   161A      1.716857   162A      1.717311  
     163A      1.718177   164A      1.733189   165A      1.734588  
     166A      1.779117   167A      1.791995   168A      1.803314  
     169A      1.804464   170A      1.849291   171A      1.853114  
     172A      1.858713   173A      1.888369   174A      1.903294  
     175A      1.927857   176A      1.933908   177A      1.940504  
     178A      1.948924   179A      1.956116   180A      1.971385  
     181A      1.972700   182A      1.981319   183A      1.993460  
     184A      2.010014   185A      2.031581   186A      2.038420  
     187A      2.090677   188A      2.111682   189A      2.115517  
     190A      2.141924   191A      2.157989   192A      2.167500  
     193A      2.206692   194A      2.209390   195A      2.226667  
     196A      2.234509   197A      2.267419   198A      2.274068  
     199A      2.298377   200A      2.362302   201A      2.363709  
     202A      2.369222   203A      2.378483   204A      2.392485  
     205A      2.431863   206A      2.453973   207A      2.464079  
     208A      2.464775   209A      2.472105   210A      2.507592  
     211A      2.623126   212A      2.671552   213A      2.686421  
     214A      2.796387   215A      2.805432   216A      2.805536  
     217A      2.816202   218A      2.821630   219A      2.977470  
     220A      2.984091   221A      2.985858   222A      3.147903  
     223A      3.148220   224A      3.160926   225A      3.171686  
     226A      3.189988   227A      3.344285   228A      3.388563  
     229A      3.566948   230A      3.568906   231A      3.893155  
     232A      4.861437   233A      6.837874   234A     20.377336  
     235A     20.803245   236A     21.118020   237A    138.011531  

    Final Occupation by Irrep:
              A 
    DOCC [    21 ]

  @DF-RHF Final Energy:  -230.72838675112115

   => Energetics <=

    Nuclear Repulsion Energy =            203.6538916079341277
    One-Electron Energy =                -713.5631942945493620
    Two-Electron Energy =                 279.1809159354940562
    Total Energy =                       -230.7283867511211497

Computation Completed


Properties will be evaluated at   0.000000,   0.000000,   0.000000 [a0]

Properties computed using the SCF density matrix

  Nuclear Dipole Moment: [e a0]
     X:     0.0000      Y:    -0.0000      Z:    93.5795

  Electronic Dipole Moment: [e a0]
     X:     0.0000      Y:    -0.0000      Z:   -93.5775

  Dipole Moment: [e a0]
     X:     0.0000      Y:    -0.0000      Z:     0.0020     Total:     0.0020

  Dipole Moment: [D]
     X:     0.0000      Y:    -0.0000      Z:     0.0051     Total:     0.0051


*** tstop() called on node51.bme.utexas.edu at Mon Sep  9 20:50:26 2019
Module time:
	user time   =      14.29 seconds =       0.24 minutes
	system time =       0.36 seconds =       0.01 minutes
	total time  =          4 seconds =       0.07 minutes
Total time:
	user time   =      42.40 seconds =       0.71 minutes
	system time =       1.17 seconds =       0.02 minutes
	total time  =         13 seconds =       0.22 minutes

  //>>>>>>>>>>>>>>>>>>>>>>>>>>>>>>>>>>>//
  //            Monomer B HF           //
  //<<<<<<<<<<<<<<<<<<<<<<<<<<<<<<<<<<<//


*** tstart() called on node51.bme.utexas.edu
*** at Mon Sep  9 20:50:26 2019

   => Loading Basis Set <=

    Name: AUG-CC-PVDZ
    Role: ORBITAL
    Keyword: BASIS
    atoms 1-6         entry C          line   178 file /home/xy3866/psi4conda/share/psi4/basis/aug-cc-pvdz.gbs 
    atoms 7-12, 14-15 entry H          line    36 file /home/xy3866/psi4conda/share/psi4/basis/aug-cc-pvdz.gbs 
    atoms 13          entry S          line   698 file /home/xy3866/psi4conda/share/psi4/basis/aug-cc-pvdz.gbs 


         ---------------------------------------------------------
                                   SCF
               by Justin Turney, Rob Parrish, Andy Simmonett
                          and Daniel G. A. Smith
                              RHF Reference
                        4 Threads,  30517 MiB Core
         ---------------------------------------------------------

  ==> Geometry <==

    Molecular point group: c1
    Full point group: C2v

    Geometry (in Angstrom), charge = 0, multiplicity = 1:

       Center              X                  Y                   Z               Mass       
    ------------   -----------------  -----------------  -----------------  -----------------
      Gh(C)           0.000000000000    -1.393658000000     1.179701852667    12.000000000000
      Gh(C)           1.207737000000    -0.696816000000     1.178476852667    12.000000000000
      Gh(C)           1.207737000000     0.696816000000     1.178476852667    12.000000000000
      Gh(C)           0.000000000000     1.393658000000     1.179701852667    12.000000000000
      Gh(C)          -1.207737000000     0.696816000000     1.178476852667    12.000000000000
      Gh(C)          -1.207737000000    -0.696816000000     1.178476852667    12.000000000000
      Gh(H)           0.000000000000    -2.475320000000     1.184975852667     1.007825032230
      Gh(H)           2.144314000000    -1.237314000000     1.177577852667     1.007825032230
      Gh(H)           2.144314000000     1.237314000000     1.177577852667     1.007825032230
      Gh(H)           0.000000000000     2.475320000000     1.184975852667     1.007825032230
      Gh(H)          -2.144314000000     1.237314000000     1.177577852667     1.007825032230
      Gh(H)          -2.144314000000    -1.237314000000     1.177577852667     1.007825032230
         S            0.000000000000     0.000000000000    -2.762826747333    31.972071174400
         H            0.000000000000     0.954437000000    -1.826758747333     1.007825032230
         H            0.000000000000    -0.954437000000    -1.826758747333     1.007825032230

  Running in c1 symmetry.

  Rotational constants: A =      0.09427  B =      0.03764  C =      0.03750 [cm^-1]
  Rotational constants: A =   2826.03195  B =   1128.55604  C =   1124.21532 [MHz]
  Nuclear repulsion =   12.944044801570231

  Charge       = 0
  Multiplicity = 1
  Electrons    = 18
  Nalpha       = 9
  Nbeta        = 9

  ==> Algorithm <==

  SCF Algorithm Type is DF.
  DIIS enabled.
  MOM disabled.
  Fractional occupation disabled.
  Guess Type is SAD.
  Energy threshold   = 1.00e-08
  Density threshold  = 1.00e-08
  Integral threshold = 0.00e+00

  ==> Primary Basis <==

  Basis Set: AUG-CC-PVDZ
    Blend: AUG-CC-PVDZ
    Number of shells: 105
    Number of basis function: 237
    Number of Cartesian functions: 251
    Spherical Harmonics?: true
    Max angular momentum: 2

   => Loading Basis Set <=

    Name: (AUG-CC-PVDZ AUX)
    Role: JKFIT
    Keyword: DF_BASIS_SCF
    atoms 1-6         entry C          line   154 file /home/xy3866/psi4conda/share/psi4/basis/aug-cc-pvdz-jkfit.gbs 
    atoms 7-12, 14-15 entry H          line    70 file /home/xy3866/psi4conda/share/psi4/basis/aug-cc-pvdz-jkfit.gbs 
    atoms 13          entry S          line   690 file /home/xy3866/psi4conda/share/psi4/basis/aug-cc-pvdz-jkfit.gbs 

  ==> Pre-Iterations <==

   -------------------------------------------------------
    Irrep   Nso     Nmo     Nalpha   Nbeta   Ndocc  Nsocc
   -------------------------------------------------------
     A        237     237       0       0       0       0
   -------------------------------------------------------
    Total     237     237       9       9       9       0
   -------------------------------------------------------

  ==> Integral Setup <==

  ==> DiskDFJK: Density-Fitted J/K Matrices <==

    J tasked:                  Yes
    K tasked:                  Yes
    wK tasked:                  No
    OpenMP threads:              4
    Integrals threads:           4
    Memory [MiB]:            22888
    Algorithm:                Core
    Integral Cache:           LOAD
    Schwarz Cutoff:          1E-12
    Fitting Condition:       1E-10

   => Auxiliary Basis Set <=

  Basis Set: (AUG-CC-PVDZ AUX)
    Blend: AUG-CC-PVDZ-JKFIT
    Number of shells: 304
    Number of basis function: 900
    Number of Cartesian functions: 1036
    Spherical Harmonics?: true
    Max angular momentum: 3

  Minimum eigenvalue in the overlap matrix is 2.3316406408E-06.
  Using Symmetric Orthogonalization.

  SCF Guess: Superposition of Atomic Densities via on-the-fly atomic UHF.

  ==> Iterations <==

                           Total Energy        Delta E     RMS |[F,P]|

   @DF-RHF iter SAD:  -398.41713700815302   -3.98417e+02   0.00000e+00 
   @DF-RHF iter   1:  -398.66623670310111   -2.49100e-01   7.96653e-04 DIIS
   @DF-RHF iter   2:  -398.69421478354769   -2.79781e-02   2.79629e-04 DIIS
   @DF-RHF iter   3:  -398.69741674964905   -3.20197e-03   7.42001e-05 DIIS
   @DF-RHF iter   4:  -398.69796709477350   -5.50345e-04   1.36724e-05 DIIS
   @DF-RHF iter   5:  -398.69798751525684   -2.04205e-05   1.91433e-06 DIIS
   @DF-RHF iter   6:  -398.69798788919451   -3.73938e-07   5.10065e-07 DIIS
   @DF-RHF iter   7:  -398.69798791634383   -2.71493e-08   1.26051e-07 DIIS
   @DF-RHF iter   8:  -398.69798791799792   -1.65409e-09   1.64893e-08 DIIS
   @DF-RHF iter   9:  -398.69798791802504   -2.71143e-11   3.01550e-09 DIIS
  Energy and wave function converged.


  ==> Post-Iterations <==

    Orbital Energies [Eh]
    ---------------------

    Doubly Occupied:                                                      

       1A    -91.971145     2A     -8.973139     3A     -6.655201  
       4A     -6.654194     5A     -6.651698     6A     -0.985206  
       7A     -0.587600     8A     -0.503774     9A     -0.384868  

    Virtual:                                                              

      10A      0.018695    11A      0.035056    12A      0.037096  
      13A      0.052198    14A      0.056010    15A      0.056199  
      16A      0.074560    17A      0.076479    18A      0.081596  
      19A      0.104563    20A      0.105204    21A      0.111950  
      22A      0.118406    23A      0.120355    24A      0.140286  
      25A      0.143555    26A      0.143989    27A      0.148344  
      28A      0.151608    29A      0.151953    30A      0.152232  
      31A      0.161316    32A      0.172519    33A      0.181410  
      34A      0.187356    35A      0.187469    36A      0.187679  
      37A      0.192797    38A      0.203551    39A      0.203552  
      40A      0.225332    41A      0.233730    42A      0.251126  
      43A      0.255694    44A      0.268709    45A      0.274867  
      46A      0.285217    47A      0.296989    48A      0.302823  
      49A      0.327974    50A      0.334049    51A      0.339612  
      52A      0.356096    53A      0.367623    54A      0.393742  
      55A      0.403840    56A      0.409305    57A      0.411584  
      58A      0.416434    59A      0.424644    60A      0.426627  
      61A      0.430801    62A      0.448294    63A      0.449035  
      64A      0.460083    65A      0.466725    66A      0.471754  
      67A      0.473417    68A      0.479008    69A      0.479447  
      70A      0.517831    71A      0.521720    72A      0.524026  
      73A      0.529582    74A      0.543503    75A      0.545127  
      76A      0.554763    77A      0.577345    78A      0.582986  
      79A      0.588969    80A      0.598810    81A      0.619380  
      82A      0.630654    83A      0.632707    84A      0.639791  
      85A      0.658801    86A      0.671143    87A      0.676271  
      88A      0.682241    89A      0.691782    90A      0.704660  
      91A      0.721994    92A      0.734896    93A      0.751178  
      94A      0.778946    95A      0.783002    96A      0.784622  
      97A      0.796325    98A      0.803610    99A      0.829793  
     100A      0.843036   101A      0.847732   102A      0.869345  
     103A      0.874206   104A      0.876011   105A      0.888558  
     106A      0.892293   107A      0.895156   108A      0.897827  
     109A      0.900007   110A      0.912107   111A      0.912625  
     112A      0.927607   113A      0.934131   114A      0.958286  
     115A      1.002167   116A      1.005156   117A      1.014459  
     118A      1.022045   119A      1.039091   120A      1.043401  
     121A      1.044158   122A      1.055463   123A      1.081171  
     124A      1.112145   125A      1.112805   126A      1.118095  
     127A      1.120062   128A      1.147569   129A      1.210946  
     130A      1.210995   131A      1.228045   132A      1.234103  
     133A      1.235922   134A      1.258575   135A      1.258766  
     136A      1.295061   137A      1.380155   138A      1.397679  
     139A      1.397960   140A      1.477115   141A      1.477214  
     142A      1.480430   143A      1.480772   144A      1.504580  
     145A      1.662073   146A      1.731303   147A      1.808971  
     148A      1.918784   149A      1.919901   150A      1.939744  
     151A      2.056238   152A      2.060263   153A      2.117931  
     154A      2.130139   155A      2.132485   156A      2.132761  
     157A      2.177053   158A      2.200052   159A      2.201452  
     160A      2.213294   161A      2.214993   162A      2.235826  
     163A      2.259966   164A      2.266168   165A      2.291782  
     166A      2.295889   167A      2.303957   168A      2.309989  
     169A      2.312696   170A      2.318023   171A      2.357740  
     172A      2.407379   173A      2.417504   174A      2.485429  
     175A      2.496117   176A      2.496240   177A      2.500352  
     178A      2.516645   179A      2.535863   180A      2.539410  
     181A      2.600964   182A      2.619211   183A      2.637091  
     184A      2.649122   185A      2.652897   186A      2.664879  
     187A      2.672437   188A      2.677729   189A      2.721219  
     190A      2.742790   191A      2.830162   192A      2.857079  
     193A      2.857934   194A      2.868009   195A      2.871330  
     196A      2.872282   197A      2.877043   198A      2.943115  
     199A      2.947276   200A      3.160710   201A      3.197927  
     202A      3.252993   203A      3.330734   204A      3.394520  
     205A      3.404530   206A      3.409207   207A      3.412768  
     208A      3.428657   209A      3.461745   210A      3.467259  
     211A      3.472843   212A      3.488093   213A      3.536565  
     214A      3.705610   215A      3.935950   216A      3.954384  
     217A      3.973978   218A      3.977350   219A      4.101694  
     220A      4.374903   221A      4.381994   222A      4.662886  
     223A      4.840180   224A      4.841947   225A      5.306838  
     226A      5.448119   227A      5.449378   228A      5.466937  
     229A      5.469199   230A      5.642233   231A      6.099097  
     232A     17.985025   233A     18.380015   234A     18.390385  
     235A     18.996816   236A     18.997663   237A     20.700595  

    Final Occupation by Irrep:
              A 
    DOCC [     9 ]

  @DF-RHF Final Energy:  -398.69798791802504

   => Energetics <=

    Nuclear Repulsion Energy =             12.9440448015702305
    One-Electron Energy =                -576.5504123436229520
    Two-Electron Energy =                 164.9083796240276456
    Total Energy =                       -398.6979879180250350

Computation Completed


Properties will be evaluated at   0.000000,   0.000000,   0.000000 [a0]

Properties computed using the SCF density matrix

  Nuclear Dipole Moment: [e a0]
     X:     0.0000      Y:     0.0000      Z:   -90.4399

  Electronic Dipole Moment: [e a0]
     X:     0.0000      Y:    -0.0000      Z:    90.8824

  Dipole Moment: [e a0]
     X:     0.0000      Y:    -0.0000      Z:     0.4425     Total:     0.4425

  Dipole Moment: [D]
     X:     0.0000      Y:    -0.0000      Z:     1.1248     Total:     1.1248


*** tstop() called on node51.bme.utexas.edu at Mon Sep  9 20:50:30 2019
Module time:
	user time   =      12.81 seconds =       0.21 minutes
	system time =       0.30 seconds =       0.01 minutes
	total time  =          4 seconds =       0.07 minutes
Total time:
	user time   =      55.24 seconds =       0.92 minutes
	system time =       1.47 seconds =       0.02 minutes
	total time  =         17 seconds =       0.28 minutes
  Constructing Basis Sets for SAPT...

   => Loading Basis Set <=

    Name: (AUG-CC-PVDZ AUX)
    Role: RIFIT
    Keyword: DF_BASIS_SAPT
    atoms 1-6         entry C          line   112 file /home/xy3866/psi4conda/share/psi4/basis/aug-cc-pvdz-ri.gbs 
    atoms 7-12, 14-15 entry H          line    30 file /home/xy3866/psi4conda/share/psi4/basis/aug-cc-pvdz-ri.gbs 
    atoms 13          entry S          line   516 file /home/xy3866/psi4conda/share/psi4/basis/aug-cc-pvdz-ri.gbs 


  //>>>>>>>>>>>>>>>>>>>>>>>>>>>>>>>>>>>//
  //               SAPT2+              //
  //<<<<<<<<<<<<<<<<<<<<<<<<<<<<<<<<<<<//


*** tstart() called on node51.bme.utexas.edu
*** at Mon Sep  9 20:50:30 2019

        SAPT2+  
    Ed Hohenstein
     6 June 2009

      Orbital Information
  --------------------------
    NSO        =       237
    NMO        =       237
    NRI        =       708
    NOCC A     =        21
    NOCC B     =         9
    FOCC A     =         6
    FOCC B     =         5
    NVIR A     =       216
    NVIR B     =       228

    Estimated memory usage: 844.6 MB

    Natural Orbital Cutoff:   1.000E-06
    Disp(T3) Truncation:            Yes
    CCD (vv|vv) Truncation:         Yes
    MBPT T2 Truncation:             Yes

    Monomer A: 50 virtual orbitals dropped
    Monomer B: 184 virtual orbitals dropped

    Elst10,r            =    -0.003173595955 [Eh]
    Exch10 (S^2)        =     0.004072495774 [Eh]
    Exch10              =     0.004074893770 [Eh]
    Ind20,r (A<-B)      =    -0.000717663450 [Eh]
    Ind20,r (B<-A)      =    -0.000502266391 [Eh]
    Ind20,r             =    -0.001219929841 [Eh]
    Exch-Ind20,r (A<-B) =     0.000429595293 [Eh]
    Exch-Ind20,r (B<-A) =     0.000377255388 [Eh]
    Exch-Ind20,r        =     0.000806850681 [Eh]
    Disp20              =    -0.005952110316 [Eh]
    Disp20 (NO)         =    -0.005621734294 [Eh]
    Exch-Disp20         =     0.000529691624 [Eh]
    Elst12,r            =     0.000244771434 [Eh]
    Exch11              =     0.000241123616 [Eh]
    Exch12              =     0.000095700537 [Eh]
    Ind22               =    -0.000079651431 [Eh]
    Disp21              =     0.001400872492 [Eh]
    Disp22 (SDQ)        =     0.000152720983 [Eh]

    (i =   1 of   4)          9 seconds
    (i =   2 of   4)         19 seconds
    (i =   3 of   4)         28 seconds
    (i =   4 of   4)         38 seconds

    Disp220 (T)         =    -0.000602276100 [Eh]

    (i =   1 of  15)          0 seconds
    (i =   2 of  15)          0 seconds
    (i =   3 of  15)          1 seconds
    (i =   4 of  15)          1 seconds
    (i =   5 of  15)          1 seconds
    (i =   6 of  15)          2 seconds
    (i =   7 of  15)          2 seconds
    (i =   8 of  15)          3 seconds
    (i =   9 of  15)          3 seconds
    (i =  10 of  15)          3 seconds
    (i =  11 of  15)          4 seconds
    (i =  12 of  15)          4 seconds
    (i =  13 of  15)          5 seconds
    (i =  14 of  15)          5 seconds
    (i =  15 of  15)          5 seconds

    Disp202 (T)         =    -0.000389061589 [Eh]

    Disp22 (T)          =    -0.000991337689 [Eh]

    Est. Disp220 (T)    =    -0.000637670441 [Eh]
    Est. Disp202 (T)    =    -0.000411925818 [Eh]

    Est. Disp22 (T)     =    -0.001049596259 [Eh]

    SAPT Results 
  --------------------------------------------------------------------------------------------------------
    Electrostatics                 -2.92882452 [mEh]      -1.83786513 [kcal/mol]      -7.68962772 [kJ/mol]
      Elst10,r                     -3.17359596 [mEh]      -1.99146153 [kcal/mol]      -8.33227503 [kJ/mol]
      Elst12,r                      0.24477143 [mEh]       0.15359639 [kcal/mol]       0.64264731 [kJ/mol]

    Exchange                        4.41171792 [mEh]       2.76839479 [kcal/mol]      11.58296381 [kJ/mol]
      Exch10                        4.07489377 [mEh]       2.55703445 [kcal/mol]      10.69863212 [kJ/mol]
      Exch10(S^2)                   4.07249577 [mEh]       2.55552968 [kcal/mol]      10.69233618 [kJ/mol]
      Exch11(S^2)                   0.24112362 [mEh]       0.15130735 [kcal/mol]       0.63306997 [kJ/mol]
      Exch12(S^2)                   0.09570054 [mEh]       0.06005299 [kcal/mol]       0.25126173 [kJ/mol]

    Induction                      -0.93234813 [mEh]      -0.58505728 [kcal/mol]      -2.44787967 [kJ/mol]
      Ind20,r                      -1.21992984 [mEh]      -0.76551753 [kcal/mol]      -3.20292536 [kJ/mol]
      Ind22                        -0.07965143 [mEh]      -0.04998203 [kcal/mol]      -0.20912480 [kJ/mol]
      Exch-Ind20,r                  0.80685068 [mEh]       0.50630645 [kcal/mol]       2.11838617 [kJ/mol]
      Exch-Ind22                    0.05268074 [mEh]       0.03305767 [kcal/mol]       0.13831327 [kJ/mol]
      delta HF,r (2)               -0.49229828 [mEh]      -0.30892183 [kcal/mol]      -1.29252895 [kJ/mol]

    Dispersion                     -4.91842148 [mEh]      -3.08635607 [kcal/mol]     -12.91331380 [kJ/mol]
      Disp20                       -5.95211032 [mEh]      -3.73500561 [kcal/mol]     -15.62726348 [kJ/mol]
      Disp21                        1.40087249 [mEh]       0.87906076 [kcal/mol]       3.67799022 [kJ/mol]
      Disp22 (SDQ)                  0.15272098 [mEh]       0.09583386 [kcal/mol]       0.40096889 [kJ/mol]
      Disp22 (T)                   -0.99133769 [mEh]      -0.62207379 [kcal/mol]      -2.60275674 [kJ/mol]
      Est. Disp22 (T)              -1.04959626 [mEh]      -0.65863160 [kcal/mol]      -2.75571460 [kJ/mol]
      Exch-Disp20                   0.52969162 [mEh]       0.33238651 [kcal/mol]       1.39070517 [kJ/mol]

  Total HF                         -0.00407962 [mEh]      -0.00256000 [kcal/mol]      -0.01071105 [kJ/mol]
  Total SAPT0                      -5.42649832 [mEh]      -3.40517910 [kcal/mol]     -14.24726936 [kJ/mol]
  Total SAPT2                      -4.87187342 [mEh]      -3.05714672 [kcal/mol]     -12.79110189 [kJ/mol]
  Total SAPT2+                     -4.36787620 [mEh]      -2.74088370 [kcal/mol]     -11.46785738 [kJ/mol]

  Special recipe for scaled SAPT0 (see Manual):
    Electrostatics sSAPT0          -3.17359596 [mEh]      -1.99146153 [kcal/mol]      -8.33227503 [kJ/mol]
    Exchange sSAPT0                 4.07489377 [mEh]       2.55703445 [kcal/mol]      10.69863212 [kJ/mol]
    Induction sSAPT0               -0.90395131 [mEh]      -0.56723801 [kcal/mol]      -2.37332384 [kJ/mol]
    Dispersion sSAPT0              -5.42148245 [mEh]      -3.40203160 [kcal/mol]     -14.23410021 [kJ/mol]
  Total sSAPT0                     -5.42413595 [mEh]      -3.40369669 [kcal/mol]     -14.24106697 [kJ/mol]
  --------------------------------------------------------------------------------------------------------

*** tstop() called on node51.bme.utexas.edu at Mon Sep  9 20:52:17 2019
Module time:
	user time   =     405.91 seconds =       6.77 minutes
	system time =      14.08 seconds =       0.23 minutes
	total time  =        107 seconds =       1.78 minutes
Total time:
	user time   =     461.71 seconds =       7.70 minutes
	system time =      15.57 seconds =       0.26 minutes
	total time  =        124 seconds =       2.07 minutes

    Psi4 stopped on: Monday, 09 September 2019 08:52PM
    Psi4 wall time for execution: 0:02:04.10

*** Psi4 exiting successfully. Buy a developer a beer!
