
    -----------------------------------------------------------------------
          Psi4: An Open-Source Ab Initio Electronic Structure Package
                               Psi4 1.3.2 release

                         Git: Rev {HEAD} ecbda83 


    R. M. Parrish, L. A. Burns, D. G. A. Smith, A. C. Simmonett,
    A. E. DePrince III, E. G. Hohenstein, U. Bozkaya, A. Yu. Sokolov,
    R. Di Remigio, R. M. Richard, J. F. Gonthier, A. M. James,
    H. R. McAlexander, A. Kumar, M. Saitow, X. Wang, B. P. Pritchard,
    P. Verma, H. F. Schaefer III, K. Patkowski, R. A. King, E. F. Valeev,
    F. A. Evangelista, J. M. Turney, T. D. Crawford, and C. D. Sherrill,
    J. Chem. Theory Comput. 13(7) pp 3185--3197 (2017).
    (doi: 10.1021/acs.jctc.7b00174)


                         Additional Contributions by
    P. Kraus, H. Kruse, M. H. Lechner, M. C. Schieber, R. A. Shaw,
    A. Alenaizan, R. Galvelis, Z. L. Glick, S. Lehtola, and J. P. Misiewicz

    -----------------------------------------------------------------------


    Psi4 started on: Monday, 09 September 2019 08:54PM

    Process ID: 94373
    Host:       node51.bme.utexas.edu
    PSIDATADIR: /home/xy3866/psi4conda/share/psi4
    Memory:     500.0 MiB
    Threads:    4
    
  ==> Input File <==

--------------------------------------------------------------------------
#psi4
#
memory 32 gb

molecule  {
0 1
  C        2.0083120    -0.3372920     0.0000040
  H        3.1030340    -0.4288200    -0.0000030
  O        1.2864570    -1.3299810     0.0000000
  N        1.5810970     0.9343630     0.0000010
  H        0.5827550     1.1459700     0.0000010
  H        2.8256788     1.5995554    -0.0000029
--
0 1
  C       -1.4348012     0.2581684     0.0000011
  H       -2.5295232     0.3496964    -0.0000009
  O       -0.7129462     1.2508574     0.0000001
  N       -1.0075862    -1.0134866     0.0000001
  H       -0.0092442    -1.2250936     0.0000001
  H       -1.6786572    -1.7578026    -0.0000009
units angstrom
no_reorient  #important for SAPT in psi4, default
symmetry c1  #important for SAPT in psi4, default
}

set {
basis aug-cc-pVDZ
scf_type DF
freeze_core True
}
energy('sapt2+')
--------------------------------------------------------------------------

  Memory set to  29.802 GiB by Python driver.

  //>>>>>>>>>>>>>>>>>>>>>>>>>>>>>>>>>>>//
  //              Dimer HF             //
  //<<<<<<<<<<<<<<<<<<<<<<<<<<<<<<<<<<<//


*** tstart() called on node51.bme.utexas.edu
*** at Mon Sep  9 20:54:38 2019

   => Loading Basis Set <=

    Name: AUG-CC-PVDZ
    Role: ORBITAL
    Keyword: BASIS
    atoms 1, 7             entry C          line   178 file /home/xy3866/psi4conda/share/psi4/basis/aug-cc-pvdz.gbs 
    atoms 2, 5-6, 8, 11-12 entry H          line    36 file /home/xy3866/psi4conda/share/psi4/basis/aug-cc-pvdz.gbs 
    atoms 3, 9             entry O          line   250 file /home/xy3866/psi4conda/share/psi4/basis/aug-cc-pvdz.gbs 
    atoms 4, 10            entry N          line   214 file /home/xy3866/psi4conda/share/psi4/basis/aug-cc-pvdz.gbs 


         ---------------------------------------------------------
                                   SCF
               by Justin Turney, Rob Parrish, Andy Simmonett
                          and Daniel G. A. Smith
                              RHF Reference
                        4 Threads,  30517 MiB Core
         ---------------------------------------------------------

  ==> Geometry <==

    Molecular point group: c1
    Full point group: C1

    Geometry (in Angstrom), charge = 0, multiplicity = 1:

       Center              X                  Y                   Z               Mass       
    ------------   -----------------  -----------------  -----------------  -----------------
         C            1.715137455744    -0.296844591913     0.000003205365    12.000000000000
         H            2.809859455744    -0.388372591913    -0.000003794635     1.007825032230
         O            0.993282455744    -1.289533591913    -0.000000794635    15.994914619570
         N            1.287922455744     0.974810408087     0.000000205365    14.003074004430
         H            0.289580455744     1.186417408087     0.000000205365     1.007825032230
         H            2.532504255744     1.640002808087    -0.000003694635     1.007825032230
         C           -1.727975744256     0.298615808087     0.000000305365    12.000000000000
         H           -2.822697744256     0.390143808087    -0.000001694635     1.007825032230
         O           -1.006120744256     1.291304808087    -0.000000694635    15.994914619570
         N           -1.300760744256    -0.973039191913    -0.000000694635    14.003074004430
         H           -0.302418744256    -1.184646191913    -0.000000694635     1.007825032230
         H           -1.971831744256    -1.717355191913    -0.000001694635     1.007825032230

  Running in c1 symmetry.

  Rotational constants: A =      0.18922  B =      0.09457  C =      0.06305 [cm^-1]
  Rotational constants: A =   5672.70436  B =   2835.02618  C =   1890.31203 [MHz]
  Nuclear repulsion =  245.379904287101482

  Charge       = 0
  Multiplicity = 1
  Electrons    = 48
  Nalpha       = 24
  Nbeta        = 24

  ==> Algorithm <==

  SCF Algorithm Type is DF.
  DIIS enabled.
  MOM disabled.
  Fractional occupation disabled.
  Guess Type is SAD.
  Energy threshold   = 1.00e-08
  Density threshold  = 1.00e-08
  Integral threshold = 0.00e+00

  ==> Primary Basis <==

  Basis Set: AUG-CC-PVDZ
    Blend: AUG-CC-PVDZ
    Number of shells: 84
    Number of basis function: 192
    Number of Cartesian functions: 204
    Spherical Harmonics?: true
    Max angular momentum: 2

   => Loading Basis Set <=

    Name: (AUG-CC-PVDZ AUX)
    Role: JKFIT
    Keyword: DF_BASIS_SCF
    atoms 1, 7             entry C          line   154 file /home/xy3866/psi4conda/share/psi4/basis/aug-cc-pvdz-jkfit.gbs 
    atoms 2, 5-6, 8, 11-12 entry H          line    70 file /home/xy3866/psi4conda/share/psi4/basis/aug-cc-pvdz-jkfit.gbs 
    atoms 3, 9             entry O          line   270 file /home/xy3866/psi4conda/share/psi4/basis/aug-cc-pvdz-jkfit.gbs 
    atoms 4, 10            entry N          line   212 file /home/xy3866/psi4conda/share/psi4/basis/aug-cc-pvdz-jkfit.gbs 

  ==> Pre-Iterations <==

   -------------------------------------------------------
    Irrep   Nso     Nmo     Nalpha   Nbeta   Ndocc  Nsocc
   -------------------------------------------------------
     A        192     192       0       0       0       0
   -------------------------------------------------------
    Total     192     192      24      24      24       0
   -------------------------------------------------------

  ==> Integral Setup <==

  ==> DiskDFJK: Density-Fitted J/K Matrices <==

    J tasked:                  Yes
    K tasked:                  Yes
    wK tasked:                  No
    OpenMP threads:              4
    Integrals threads:           4
    Memory [MiB]:            22888
    Algorithm:                Core
    Integral Cache:           SAVE
    Schwarz Cutoff:          1E-12
    Fitting Condition:       1E-10

   => Auxiliary Basis Set <=

  Basis Set: (AUG-CC-PVDZ AUX)
    Blend: AUG-CC-PVDZ-JKFIT
    Number of shells: 240
    Number of basis function: 708
    Number of Cartesian functions: 816
    Spherical Harmonics?: true
    Max angular momentum: 3

  Minimum eigenvalue in the overlap matrix is 1.9418304869E-04.
  Using Symmetric Orthogonalization.

  SCF Guess: Superposition of Atomic Densities via on-the-fly atomic UHF.

  ==> Iterations <==

                           Total Energy        Delta E     RMS |[F,P]|

   @DF-RHF iter SAD:  -336.91474302088881   -3.36915e+02   0.00000e+00 
   @DF-RHF iter   1:  -337.56273634153638   -6.47993e-01   3.70010e-03 DIIS
   @DF-RHF iter   2:  -337.72365508964180   -1.60919e-01   2.31087e-03 DIIS
   @DF-RHF iter   3:  -337.80078698631178   -7.71319e-02   3.01112e-04 DIIS
   @DF-RHF iter   4:  -337.80341779580891   -2.63081e-03   1.12932e-04 DIIS
   @DF-RHF iter   5:  -337.80377135839200   -3.53563e-04   3.76833e-05 DIIS
   @DF-RHF iter   6:  -337.80384336099058   -7.20026e-05   1.75635e-05 DIIS
   @DF-RHF iter   7:  -337.80385972978695   -1.63688e-05   5.98323e-06 DIIS
   @DF-RHF iter   8:  -337.80386248569874   -2.75591e-06   2.54061e-06 DIIS
   @DF-RHF iter   9:  -337.80386280603648   -3.20338e-07   7.81636e-07 DIIS
   @DF-RHF iter  10:  -337.80386284142583   -3.53893e-08   3.02521e-07 DIIS
   @DF-RHF iter  11:  -337.80386284594329   -4.51746e-09   9.41082e-08 DIIS
   @DF-RHF iter  12:  -337.80386284643367   -4.90388e-10   3.63932e-08 DIIS
   @DF-RHF iter  13:  -337.80386284647631   -4.26326e-11   1.48556e-08 DIIS
   @DF-RHF iter  14:  -337.80386284648262   -6.30962e-12   3.53741e-09 DIIS
  Energy and wave function converged.


  ==> Post-Iterations <==

    Orbital Energies [Eh]
    ---------------------

    Doubly Occupied:                                                      

       1A    -20.547662     2A    -20.538741     3A    -15.590314  
       4A    -15.560574     5A    -11.370826     6A    -11.363703  
       7A     -1.420036     8A     -1.402622     9A     -1.214511  
      10A     -1.178024    11A     -0.900131    12A     -0.807762  
      13A     -0.781784    14A     -0.736611    15A     -0.682196  
      16A     -0.629619    17A     -0.596701    18A     -0.590550  
      19A     -0.567483    20A     -0.547756    21A     -0.460056  
      22A     -0.425259    23A     -0.412187    24A     -0.394509  

    Virtual:                                                              

      25A      0.028946    26A      0.036129    27A      0.053332  
      28A      0.061622    29A      0.070866    30A      0.091016  
      31A      0.097327    32A      0.104352    33A      0.118114  
      34A      0.124272    35A      0.139474    36A      0.151058  
      37A      0.161703    38A      0.164035    39A      0.175783  
      40A      0.184459    41A      0.184980    42A      0.196932  
      43A      0.207273    44A      0.220957    45A      0.231454  
      46A      0.245846    47A      0.276089    48A      0.276907  
      49A      0.279131    50A      0.310522    51A      0.321462  
      52A      0.327416    53A      0.341431    54A      0.343182  
      55A      0.348207    56A      0.350330    57A      0.368387  
      58A      0.375152    59A      0.395937    60A      0.398757  
      61A      0.419723    62A      0.432284    63A      0.452931  
      64A      0.455322    65A      0.464335    66A      0.474484  
      67A      0.498113    68A      0.515158    69A      0.536913  
      70A      0.541216    71A      0.550192    72A      0.560798  
      73A      0.581700    74A      0.591311    75A      0.612232  
      76A      0.615967    77A      0.661377    78A      0.668808  
      79A      0.669439    80A      0.674916    81A      0.677083  
      82A      0.703035    83A      0.703158    84A      0.707016  
      85A      0.719966    86A      0.733308    87A      0.746553  
      88A      0.757527    89A      0.802673    90A      0.811228  
      91A      0.812590    92A      0.818009    93A      0.841241  
      94A      0.847542    95A      0.858860    96A      0.904999  
      97A      0.954337    98A      0.967430    99A      0.995280  
     100A      1.002392   101A      1.002959   102A      1.027672  
     103A      1.041129   104A      1.053374   105A      1.068389  
     106A      1.071219   107A      1.088377   108A      1.126122  
     109A      1.186498   110A      1.204953   111A      1.219767  
     112A      1.228448   113A      1.286966   114A      1.297802  
     115A      1.339769   116A      1.345511   117A      1.376787  
     118A      1.405552   119A      1.455810   120A      1.486811  
     121A      1.492478   122A      1.522201   123A      1.568065  
     124A      1.577470   125A      1.600668   126A      1.633386  
     127A      1.680771   128A      1.686234   129A      1.709859  
     130A      1.742073   131A      1.751897   132A      1.773042  
     133A      1.793309   134A      1.804588   135A      1.856642  
     136A      1.863071   137A      1.916802   138A      1.954082  
     139A      1.986628   140A      2.022111   141A      2.046166  
     142A      2.085379   143A      2.090058   144A      2.129346  
     145A      2.148802   146A      2.160154   147A      2.210781  
     148A      2.223662   149A      2.237153   150A      2.244604  
     151A      2.308465   152A      2.336356   153A      2.358171  
     154A      2.409397   155A      2.418759   156A      2.451524  
     157A      2.498234   158A      2.517680   159A      2.528153  
     160A      2.552044   161A      2.627768   162A      2.696068  
     163A      2.726857   164A      2.731767   165A      2.836119  
     166A      2.866977   167A      2.902560   168A      2.903517  
     169A      2.918121   170A      2.934882   171A      2.992003  
     172A      3.052248   173A      3.113447   174A      3.223654  
     175A      3.305510   176A      3.350902   177A      3.374456  
     178A      3.512409   179A      3.540361   180A      3.580861  
     181A      3.668239   182A      3.747286   183A      3.762374  
     184A      3.767348   185A      3.840438   186A      3.846167  
     187A      3.911048   188A      4.042696   189A      4.237639  
     190A      4.254953   191A      4.443707   192A      4.490950  

    Final Occupation by Irrep:
              A 
    DOCC [    24 ]

  @DF-RHF Final Energy:  -337.80386284648262

   => Energetics <=

    Nuclear Repulsion Energy =            245.3799042871014819
    One-Electron Energy =                -948.9282995832004417
    Two-Electron Energy =                 365.7445324496163721
    Total Energy =                       -337.8038628464826161

Computation Completed


Properties will be evaluated at   0.000000,   0.000000,   0.000000 [a0]

Properties computed using the SCF density matrix

  Nuclear Dipole Moment: [e a0]
     X:     0.5015      Y:    -0.0692      Z:    -0.0000

  Electronic Dipole Moment: [e a0]
     X:    -0.4339      Y:    -0.0308      Z:     0.0000

  Dipole Moment: [e a0]
     X:     0.0676      Y:    -0.1000      Z:    -0.0000     Total:     0.1207

  Dipole Moment: [D]
     X:     0.1717      Y:    -0.2541      Z:    -0.0000     Total:     0.3067


*** tstop() called on node51.bme.utexas.edu at Mon Sep  9 20:54:44 2019
Module time:
	user time   =      18.70 seconds =       0.31 minutes
	system time =       0.52 seconds =       0.01 minutes
	total time  =          6 seconds =       0.10 minutes
Total time:
	user time   =      18.70 seconds =       0.31 minutes
	system time =       0.52 seconds =       0.01 minutes
	total time  =          6 seconds =       0.10 minutes

  //>>>>>>>>>>>>>>>>>>>>>>>>>>>>>>>>>>>//
  //            Monomer A HF           //
  //<<<<<<<<<<<<<<<<<<<<<<<<<<<<<<<<<<<//


*** tstart() called on node51.bme.utexas.edu
*** at Mon Sep  9 20:54:44 2019

   => Loading Basis Set <=

    Name: AUG-CC-PVDZ
    Role: ORBITAL
    Keyword: BASIS
    atoms 1, 7             entry C          line   178 file /home/xy3866/psi4conda/share/psi4/basis/aug-cc-pvdz.gbs 
    atoms 2, 5-6, 8, 11-12 entry H          line    36 file /home/xy3866/psi4conda/share/psi4/basis/aug-cc-pvdz.gbs 
    atoms 3, 9             entry O          line   250 file /home/xy3866/psi4conda/share/psi4/basis/aug-cc-pvdz.gbs 
    atoms 4, 10            entry N          line   214 file /home/xy3866/psi4conda/share/psi4/basis/aug-cc-pvdz.gbs 


         ---------------------------------------------------------
                                   SCF
               by Justin Turney, Rob Parrish, Andy Simmonett
                          and Daniel G. A. Smith
                              RHF Reference
                        4 Threads,  30517 MiB Core
         ---------------------------------------------------------

  ==> Geometry <==

    Molecular point group: c1
    Full point group: C1

    Geometry (in Angstrom), charge = 0, multiplicity = 1:

       Center              X                  Y                   Z               Mass       
    ------------   -----------------  -----------------  -----------------  -----------------
         C            1.715137455744    -0.296844591913     0.000003205365    12.000000000000
         H            2.809859455744    -0.388372591913    -0.000003794635     1.007825032230
         O            0.993282455744    -1.289533591913    -0.000000794635    15.994914619570
         N            1.287922455744     0.974810408087     0.000000205365    14.003074004430
         H            0.289580455744     1.186417408087     0.000000205365     1.007825032230
         H            2.532504255744     1.640002808087    -0.000003694635     1.007825032230
      Gh(C)          -1.727975744256     0.298615808087     0.000000305365    12.000000000000
      Gh(H)          -2.822697744256     0.390143808087    -0.000001694635     1.007825032230
      Gh(O)          -1.006120744256     1.291304808087    -0.000000694635    15.994914619570
      Gh(N)          -1.300760744256    -0.973039191913    -0.000000694635    14.003074004430
      Gh(H)          -0.302418744256    -1.184646191913    -0.000000694635     1.007825032230
      Gh(H)          -1.971831744256    -1.717355191913    -0.000001694635     1.007825032230

  Running in c1 symmetry.

  Rotational constants: A =      0.18922  B =      0.09457  C =      0.06305 [cm^-1]
  Rotational constants: A =   5672.70436  B =   2835.02618  C =   1890.31203 [MHz]
  Nuclear repulsion =   69.930965854281993

  Charge       = 0
  Multiplicity = 1
  Electrons    = 24
  Nalpha       = 12
  Nbeta        = 12

  ==> Algorithm <==

  SCF Algorithm Type is DF.
  DIIS enabled.
  MOM disabled.
  Fractional occupation disabled.
  Guess Type is SAD.
  Energy threshold   = 1.00e-08
  Density threshold  = 1.00e-08
  Integral threshold = 0.00e+00

  ==> Primary Basis <==

  Basis Set: AUG-CC-PVDZ
    Blend: AUG-CC-PVDZ
    Number of shells: 84
    Number of basis function: 192
    Number of Cartesian functions: 204
    Spherical Harmonics?: true
    Max angular momentum: 2

   => Loading Basis Set <=

    Name: (AUG-CC-PVDZ AUX)
    Role: JKFIT
    Keyword: DF_BASIS_SCF
    atoms 1, 7             entry C          line   154 file /home/xy3866/psi4conda/share/psi4/basis/aug-cc-pvdz-jkfit.gbs 
    atoms 2, 5-6, 8, 11-12 entry H          line    70 file /home/xy3866/psi4conda/share/psi4/basis/aug-cc-pvdz-jkfit.gbs 
    atoms 3, 9             entry O          line   270 file /home/xy3866/psi4conda/share/psi4/basis/aug-cc-pvdz-jkfit.gbs 
    atoms 4, 10            entry N          line   212 file /home/xy3866/psi4conda/share/psi4/basis/aug-cc-pvdz-jkfit.gbs 

  ==> Pre-Iterations <==

   -------------------------------------------------------
    Irrep   Nso     Nmo     Nalpha   Nbeta   Ndocc  Nsocc
   -------------------------------------------------------
     A        192     192       0       0       0       0
   -------------------------------------------------------
    Total     192     192      12      12      12       0
   -------------------------------------------------------

  ==> Integral Setup <==

  ==> DiskDFJK: Density-Fitted J/K Matrices <==

    J tasked:                  Yes
    K tasked:                  Yes
    wK tasked:                  No
    OpenMP threads:              4
    Integrals threads:           4
    Memory [MiB]:            22888
    Algorithm:                Core
    Integral Cache:           LOAD
    Schwarz Cutoff:          1E-12
    Fitting Condition:       1E-10

   => Auxiliary Basis Set <=

  Basis Set: (AUG-CC-PVDZ AUX)
    Blend: AUG-CC-PVDZ-JKFIT
    Number of shells: 240
    Number of basis function: 708
    Number of Cartesian functions: 816
    Spherical Harmonics?: true
    Max angular momentum: 3

  Minimum eigenvalue in the overlap matrix is 1.9418304869E-04.
  Using Symmetric Orthogonalization.

  SCF Guess: Superposition of Atomic Densities via on-the-fly atomic UHF.

  ==> Iterations <==

                           Total Energy        Delta E     RMS |[F,P]|

   @DF-RHF iter SAD:  -167.98412516549220   -1.67984e+02   0.00000e+00 
   @DF-RHF iter   1:  -168.72281109094257   -7.38686e-01   2.76063e-03 DIIS
   @DF-RHF iter   2:  -168.80689672270924   -8.40856e-02   2.02966e-03 DIIS
   @DF-RHF iter   3:  -168.86485271886201   -5.79560e-02   2.74248e-04 DIIS
   @DF-RHF iter   4:  -168.86695133812196   -2.09862e-03   1.38756e-04 DIIS
   @DF-RHF iter   5:  -168.86752490134106   -5.73563e-04   3.95937e-05 DIIS
   @DF-RHF iter   6:  -168.86762890371148   -1.04002e-04   1.77209e-05 DIIS
   @DF-RHF iter   7:  -168.86764825306082   -1.93493e-05   6.30032e-06 DIIS
   @DF-RHF iter   8:  -168.86765046235050   -2.20929e-06   2.06413e-06 DIIS
   @DF-RHF iter   9:  -168.86765069961035   -2.37260e-07   5.44937e-07 DIIS
   @DF-RHF iter  10:  -168.86765071906035   -1.94500e-08   1.24174e-07 DIIS
   @DF-RHF iter  11:  -168.86765071999938   -9.39025e-10   2.45696e-08 DIIS
   @DF-RHF iter  12:  -168.86765072003351   -3.41345e-11   5.35856e-09 DIIS
  Energy and wave function converged.


  ==> Post-Iterations <==

    Orbital Energies [Eh]
    ---------------------

    Doubly Occupied:                                                      

       1A    -20.535616     2A    -15.633270     3A    -11.362487  
       4A     -1.378752     5A     -1.200668     6A     -0.847855  
       7A     -0.686138     8A     -0.669251     9A     -0.568634  
      10A     -0.558526    11A     -0.429812    12A     -0.415757  

    Virtual:                                                              

      13A      0.014755    14A      0.032949    15A      0.049051  
      16A      0.063114    17A      0.068387    18A      0.085828  
      19A      0.090766    20A      0.101007    21A      0.104893  
      22A      0.115289    23A      0.119524    24A      0.136602  
      25A      0.163957    26A      0.166638    27A      0.167071  
      28A      0.176036    29A      0.180016    30A      0.191395  
      31A      0.200027    32A      0.220854    33A      0.229742  
      34A      0.235952    35A      0.251569    36A      0.268284  
      37A      0.274289    38A      0.303000    39A      0.314883  
      40A      0.315237    41A      0.324001    42A      0.341525  
      43A      0.343904    44A      0.359059    45A      0.376166  
      46A      0.379986    47A      0.411728    48A      0.422195  
      49A      0.438301    50A      0.444586    51A      0.459156  
      52A      0.461352    53A      0.470966    54A      0.478869  
      55A      0.495675    56A      0.514566    57A      0.525883  
      58A      0.534914    59A      0.539035    60A      0.551807  
      61A      0.569967    62A      0.592699    63A      0.596642  
      64A      0.612965    65A      0.644507    66A      0.648859  
      67A      0.666808    68A      0.677461    69A      0.679029  
      70A      0.685352    71A      0.696526    72A      0.716663  
      73A      0.728506    74A      0.756715    75A      0.766288  
      76A      0.796727    77A      0.809461    78A      0.830923  
      79A      0.838550    80A      0.841419    81A      0.869912  
      82A      0.905472    83A      0.930136    84A      0.940476  
      85A      0.975094    86A      1.010254    87A      1.013732  
      88A      1.018282    89A      1.043845    90A      1.053108  
      91A      1.061579    92A      1.107136    93A      1.110572  
      94A      1.134763    95A      1.155074    96A      1.170269  
      97A      1.199167    98A      1.233315    99A      1.239751  
     100A      1.278909   101A      1.304044   102A      1.317803  
     103A      1.338492   104A      1.372188   105A      1.388403  
     106A      1.415883   107A      1.425149   108A      1.451470  
     109A      1.454446   110A      1.482439   111A      1.488926  
     112A      1.530373   113A      1.554827   114A      1.619637  
     115A      1.639322   116A      1.669557   117A      1.687404  
     118A      1.720570   119A      1.772228   120A      1.804588  
     121A      1.844181   122A      1.845002   123A      1.902469  
     124A      1.983372   125A      2.015061   126A      2.083735  
     127A      2.101024   128A      2.122026   129A      2.135642  
     130A      2.149826   131A      2.190002   132A      2.262023  
     133A      2.331855   134A      2.352659   135A      2.371908  
     136A      2.423660   137A      2.426959   138A      2.439069  
     139A      2.485481   140A      2.531135   141A      2.546118  
     142A      2.561701   143A      2.628702   144A      2.698255  
     145A      2.699513   146A      2.748572   147A      2.826213  
     148A      2.841939   149A      2.865648   150A      2.900437  
     151A      2.920120   152A      3.035070   153A      3.075732  
     154A      3.120314   155A      3.156293   156A      3.254341  
     157A      3.264535   158A      3.268301   159A      3.366751  
     160A      3.397164   161A      3.504398   162A      3.563734  
     163A      3.603964   164A      3.719666   165A      3.751295  
     166A      3.786084   167A      3.822942   168A      3.827001  
     169A      3.854193   170A      3.886809   171A      3.981583  
     172A      4.227874   173A      4.304259   174A      4.471101  
     175A      4.591479   176A      4.632444   177A      4.703962  
     178A      4.799998   179A      4.931499   180A      5.053393  
     181A      5.073865   182A      5.262295   183A      5.442338  
     184A      5.871357   185A      5.994417   186A      6.142323  
     187A      6.410781   188A      6.615209   189A      7.107952  
     190A     18.664708   191A     25.550324   192A     33.489796  

    Final Occupation by Irrep:
              A 
    DOCC [    12 ]

  @DF-RHF Final Energy:  -168.86765072003351

   => Energetics <=

    Nuclear Repulsion Energy =             69.9309658542819932
    One-Electron Energy =                -369.0236979820213605
    Two-Electron Energy =                 130.2250814077058862
    Total Energy =                       -168.8676507200335095

Computation Completed


Properties will be evaluated at   0.000000,   0.000000,   0.000000 [a0]

Properties computed using the SCF density matrix

  Nuclear Dipole Moment: [e a0]
     X:    62.1427      Y:    -5.3585      Z:     0.0000

  Electronic Dipole Moment: [e a0]
     X:   -61.3259      Y:     6.9465      Z:    -0.0000

  Dipole Moment: [e a0]
     X:     0.8167      Y:     1.5879      Z:    -0.0000     Total:     1.7857

  Dipole Moment: [D]
     X:     2.0759      Y:     4.0362      Z:    -0.0000     Total:     4.5387


*** tstop() called on node51.bme.utexas.edu at Mon Sep  9 20:54:47 2019
Module time:
	user time   =      10.68 seconds =       0.18 minutes
	system time =       0.36 seconds =       0.01 minutes
	total time  =          3 seconds =       0.05 minutes
Total time:
	user time   =      29.40 seconds =       0.49 minutes
	system time =       0.88 seconds =       0.01 minutes
	total time  =          9 seconds =       0.15 minutes

  //>>>>>>>>>>>>>>>>>>>>>>>>>>>>>>>>>>>//
  //            Monomer B HF           //
  //<<<<<<<<<<<<<<<<<<<<<<<<<<<<<<<<<<<//


*** tstart() called on node51.bme.utexas.edu
*** at Mon Sep  9 20:54:47 2019

   => Loading Basis Set <=

    Name: AUG-CC-PVDZ
    Role: ORBITAL
    Keyword: BASIS
    atoms 1, 7             entry C          line   178 file /home/xy3866/psi4conda/share/psi4/basis/aug-cc-pvdz.gbs 
    atoms 2, 5-6, 8, 11-12 entry H          line    36 file /home/xy3866/psi4conda/share/psi4/basis/aug-cc-pvdz.gbs 
    atoms 3, 9             entry O          line   250 file /home/xy3866/psi4conda/share/psi4/basis/aug-cc-pvdz.gbs 
    atoms 4, 10            entry N          line   214 file /home/xy3866/psi4conda/share/psi4/basis/aug-cc-pvdz.gbs 


         ---------------------------------------------------------
                                   SCF
               by Justin Turney, Rob Parrish, Andy Simmonett
                          and Daniel G. A. Smith
                              RHF Reference
                        4 Threads,  30517 MiB Core
         ---------------------------------------------------------

  ==> Geometry <==

    Molecular point group: c1
    Full point group: C1

    Geometry (in Angstrom), charge = 0, multiplicity = 1:

       Center              X                  Y                   Z               Mass       
    ------------   -----------------  -----------------  -----------------  -----------------
      Gh(C)           1.715137455744    -0.296844591913     0.000003205365    12.000000000000
      Gh(H)           2.809859455744    -0.388372591913    -0.000003794635     1.007825032230
      Gh(O)           0.993282455744    -1.289533591913    -0.000000794635    15.994914619570
      Gh(N)           1.287922455744     0.974810408087     0.000000205365    14.003074004430
      Gh(H)           0.289580455744     1.186417408087     0.000000205365     1.007825032230
      Gh(H)           2.532504255744     1.640002808087    -0.000003694635     1.007825032230
         C           -1.727975744256     0.298615808087     0.000000305365    12.000000000000
         H           -2.822697744256     0.390143808087    -0.000001694635     1.007825032230
         O           -1.006120744256     1.291304808087    -0.000000694635    15.994914619570
         N           -1.300760744256    -0.973039191913    -0.000000694635    14.003074004430
         H           -0.302418744256    -1.184646191913    -0.000000694635     1.007825032230
         H           -1.971831744256    -1.717355191913    -0.000001694635     1.007825032230

  Running in c1 symmetry.

  Rotational constants: A =      0.18922  B =      0.09457  C =      0.06305 [cm^-1]
  Rotational constants: A =   5672.70436  B =   2835.02618  C =   1890.31203 [MHz]
  Nuclear repulsion =   71.161114512123262

  Charge       = 0
  Multiplicity = 1
  Electrons    = 24
  Nalpha       = 12
  Nbeta        = 12

  ==> Algorithm <==

  SCF Algorithm Type is DF.
  DIIS enabled.
  MOM disabled.
  Fractional occupation disabled.
  Guess Type is SAD.
  Energy threshold   = 1.00e-08
  Density threshold  = 1.00e-08
  Integral threshold = 0.00e+00

  ==> Primary Basis <==

  Basis Set: AUG-CC-PVDZ
    Blend: AUG-CC-PVDZ
    Number of shells: 84
    Number of basis function: 192
    Number of Cartesian functions: 204
    Spherical Harmonics?: true
    Max angular momentum: 2

   => Loading Basis Set <=

    Name: (AUG-CC-PVDZ AUX)
    Role: JKFIT
    Keyword: DF_BASIS_SCF
    atoms 1, 7             entry C          line   154 file /home/xy3866/psi4conda/share/psi4/basis/aug-cc-pvdz-jkfit.gbs 
    atoms 2, 5-6, 8, 11-12 entry H          line    70 file /home/xy3866/psi4conda/share/psi4/basis/aug-cc-pvdz-jkfit.gbs 
    atoms 3, 9             entry O          line   270 file /home/xy3866/psi4conda/share/psi4/basis/aug-cc-pvdz-jkfit.gbs 
    atoms 4, 10            entry N          line   212 file /home/xy3866/psi4conda/share/psi4/basis/aug-cc-pvdz-jkfit.gbs 

  ==> Pre-Iterations <==

   -------------------------------------------------------
    Irrep   Nso     Nmo     Nalpha   Nbeta   Ndocc  Nsocc
   -------------------------------------------------------
     A        192     192       0       0       0       0
   -------------------------------------------------------
    Total     192     192      12      12      12       0
   -------------------------------------------------------

  ==> Integral Setup <==

  ==> DiskDFJK: Density-Fitted J/K Matrices <==

    J tasked:                  Yes
    K tasked:                  Yes
    wK tasked:                  No
    OpenMP threads:              4
    Integrals threads:           4
    Memory [MiB]:            22888
    Algorithm:                Core
    Integral Cache:           LOAD
    Schwarz Cutoff:          1E-12
    Fitting Condition:       1E-10

   => Auxiliary Basis Set <=

  Basis Set: (AUG-CC-PVDZ AUX)
    Blend: AUG-CC-PVDZ-JKFIT
    Number of shells: 240
    Number of basis function: 708
    Number of Cartesian functions: 816
    Spherical Harmonics?: true
    Max angular momentum: 3

  Minimum eigenvalue in the overlap matrix is 1.9418304869E-04.
  Using Symmetric Orthogonalization.

  SCF Guess: Superposition of Atomic Densities via on-the-fly atomic UHF.

  ==> Iterations <==

                           Total Energy        Delta E     RMS |[F,P]|

   @DF-RHF iter SAD:  -168.17540747347516   -1.68175e+02   0.00000e+00 
   @DF-RHF iter   1:  -168.83919093223676   -6.63783e-01   2.70407e-03 DIIS
   @DF-RHF iter   2:  -168.91789579180747   -7.87049e-02   1.80455e-03 DIIS
   @DF-RHF iter   3:  -168.96107666994826   -4.31809e-02   2.68707e-04 DIIS
   @DF-RHF iter   4:  -168.96253072304384   -1.45405e-03   1.12890e-04 DIIS
   @DF-RHF iter   5:  -168.96282249309468   -2.91770e-04   2.22420e-05 DIIS
   @DF-RHF iter   6:  -168.96285090214153   -2.84090e-05   1.08030e-05 DIIS
   @DF-RHF iter   7:  -168.96285699850154   -6.09636e-06   4.19550e-06 DIIS
   @DF-RHF iter   8:  -168.96285797584565   -9.77344e-07   1.26550e-06 DIIS
   @DF-RHF iter   9:  -168.96285806279894   -8.69533e-08   3.31391e-07 DIIS
   @DF-RHF iter  10:  -168.96285806886007   -6.06113e-09   7.47982e-08 DIIS
   @DF-RHF iter  11:  -168.96285806912849   -2.68415e-10   1.32713e-08 DIIS
   @DF-RHF iter  12:  -168.96285806913704   -8.55493e-12   2.51379e-09 DIIS
  Energy and wave function converged.


  ==> Post-Iterations <==

    Orbital Energies [Eh]
    ---------------------

    Doubly Occupied:                                                      

       1A    -20.537482     2A    -15.609466     3A    -11.366060  
       4A     -1.381644     5A     -1.229920     6A     -0.856324  
       7A     -0.757188     8A     -0.678128     9A     -0.604202  
      10A     -0.571643    11A     -0.434301    12A     -0.420886  

    Virtual:                                                              

      13A      0.023686    14A      0.035258    15A      0.048398  
      16A      0.066230    17A      0.067957    18A      0.085427  
      19A      0.101696    20A      0.101729    21A      0.106811  
      22A      0.118197    23A      0.130688    24A      0.155494  
      25A      0.161905    26A      0.163751    27A      0.168340  
      28A      0.175826    29A      0.182161    30A      0.198532  
      31A      0.211681    32A      0.219321    33A      0.235922  
      34A      0.238938    35A      0.254592    36A      0.270055  
      37A      0.274289    38A      0.305312    39A      0.314540  
      40A      0.320028    41A      0.330205    42A      0.355021  
      43A      0.359408    44A      0.362828    45A      0.378509  
      46A      0.381309    47A      0.419820    48A      0.429370  
      49A      0.447058    50A      0.451100    51A      0.455483  
      52A      0.463343    53A      0.468546    54A      0.475191  
      55A      0.493648    56A      0.510447    57A      0.525987  
      58A      0.536304    59A      0.537341    60A      0.563261  
      61A      0.585144    62A      0.598617    63A      0.601068  
      64A      0.626436    65A      0.642183    66A      0.657875  
      67A      0.661202    68A      0.668128    69A      0.677781  
      70A      0.681257    71A      0.697126    72A      0.711883  
      73A      0.723274    74A      0.749110    75A      0.754681  
      76A      0.789562    77A      0.798986    78A      0.825338  
      79A      0.834571    80A      0.838588    81A      0.870092  
      82A      0.899849    83A      0.926040    84A      0.974318  
      85A      0.974337    86A      0.994166    87A      1.010731  
      88A      1.026197    89A      1.027918    90A      1.039992  
      91A      1.061019    92A      1.086889    93A      1.098340  
      94A      1.142329    95A      1.152564    96A      1.196054  
      97A      1.227039    98A      1.232053    99A      1.234061  
     100A      1.278345   101A      1.301270   102A      1.336090  
     103A      1.350265   104A      1.369943   105A      1.412465  
     106A      1.415244   107A      1.426620   108A      1.436551  
     109A      1.458556   110A      1.479313   111A      1.525303  
     112A      1.545644   113A      1.558762   114A      1.640400  
     115A      1.641141   116A      1.662054   117A      1.691656  
     118A      1.723017   119A      1.798267   120A      1.829966  
     121A      1.895365   122A      1.928005   123A      1.994560  
     124A      2.045095   125A      2.075886   126A      2.085961  
     127A      2.095273   128A      2.125257   129A      2.161073  
     130A      2.188354   131A      2.208593   132A      2.255502  
     133A      2.262427   134A      2.339275   135A      2.347231  
     136A      2.376433   137A      2.397841   138A      2.433353  
     139A      2.456143   140A      2.522478   141A      2.554638  
     142A      2.594435   143A      2.619177   144A      2.643773  
     145A      2.706616   146A      2.761739   147A      2.786146  
     148A      2.877753   149A      2.889266   150A      2.901039  
     151A      2.919552   152A      2.994564   153A      3.047944  
     154A      3.075724   155A      3.194626   156A      3.237647  
     157A      3.248507   158A      3.285251   159A      3.363311  
     160A      3.415904   161A      3.483699   162A      3.557698  
     163A      3.588468   164A      3.677949   165A      3.703184  
     166A      3.771886   167A      3.784375   168A      3.825142  
     169A      3.828156   170A      3.886419   171A      3.988975  
     172A      4.141162   173A      4.248302   174A      4.332293  
     175A      4.514455   176A      4.597493   177A      4.636573  
     178A      4.821396   179A      4.930649   180A      5.047879  
     181A      5.052443   182A      5.220664   183A      5.371617  
     184A      5.690500   185A      5.876030   186A      6.014540  
     187A      6.334736   188A      6.592773   189A      7.145323  
     190A     18.673100   191A     25.439680   192A     33.494255  

    Final Occupation by Irrep:
              A 
    DOCC [    12 ]

  @DF-RHF Final Energy:  -168.96285806913704

   => Energetics <=

    Nuclear Repulsion Energy =             71.1611145121232624
    One-Electron Energy =                -371.3534583000233624
    Two-Electron Energy =                 131.2294857187630441
    Total Energy =                       -168.9628580691370416

Computation Completed


Properties will be evaluated at   0.000000,   0.000000,   0.000000 [a0]

Properties computed using the SCF density matrix

  Nuclear Dipole Moment: [e a0]
     X:   -61.6412      Y:     5.2893      Z:    -0.0000

  Electronic Dipole Moment: [e a0]
     X:    61.0210      Y:    -6.9339      Z:     0.0000

  Dipole Moment: [e a0]
     X:    -0.6202      Y:    -1.6446      Z:    -0.0000     Total:     1.7576

  Dipole Moment: [D]
     X:    -1.5763      Y:    -4.1800      Z:    -0.0000     Total:     4.4674


*** tstop() called on node51.bme.utexas.edu at Mon Sep  9 20:54:50 2019
Module time:
	user time   =      10.66 seconds =       0.18 minutes
	system time =       0.35 seconds =       0.01 minutes
	total time  =          3 seconds =       0.05 minutes
Total time:
	user time   =      40.08 seconds =       0.67 minutes
	system time =       1.23 seconds =       0.02 minutes
	total time  =         12 seconds =       0.20 minutes
  Constructing Basis Sets for SAPT...

   => Loading Basis Set <=

    Name: (AUG-CC-PVDZ AUX)
    Role: RIFIT
    Keyword: DF_BASIS_SAPT
    atoms 1, 7             entry C          line   112 file /home/xy3866/psi4conda/share/psi4/basis/aug-cc-pvdz-ri.gbs 
    atoms 2, 5-6, 8, 11-12 entry H          line    30 file /home/xy3866/psi4conda/share/psi4/basis/aug-cc-pvdz-ri.gbs 
    atoms 3, 9             entry O          line   204 file /home/xy3866/psi4conda/share/psi4/basis/aug-cc-pvdz-ri.gbs 
    atoms 4, 10            entry N          line   158 file /home/xy3866/psi4conda/share/psi4/basis/aug-cc-pvdz-ri.gbs 


  //>>>>>>>>>>>>>>>>>>>>>>>>>>>>>>>>>>>//
  //               SAPT2+              //
  //<<<<<<<<<<<<<<<<<<<<<<<<<<<<<<<<<<<//


*** tstart() called on node51.bme.utexas.edu
*** at Mon Sep  9 20:54:50 2019

        SAPT2+  
    Ed Hohenstein
     6 June 2009

      Orbital Information
  --------------------------
    NSO        =       192
    NMO        =       192
    NRI        =       570
    NOCC A     =        12
    NOCC B     =        12
    FOCC A     =         3
    FOCC B     =         3
    NVIR A     =       180
    NVIR B     =       180

    Estimated memory usage: 259.7 MB

    Natural Orbital Cutoff:   1.000E-06
    Disp(T3) Truncation:            Yes
    CCD (vv|vv) Truncation:         Yes
    MBPT T2 Truncation:             Yes

    Monomer A: 82 virtual orbitals dropped
    Monomer B: 83 virtual orbitals dropped

    Elst10,r            =    -0.124642045385 [Eh]
    Exch10 (S^2)        =     0.227996359227 [Eh]
    Exch10              =     0.242549549493 [Eh]
    Ind20,r (A<-B)      =    -0.060415472383 [Eh]
    Ind20,r (B<-A)      =    -0.062160655749 [Eh]
    Ind20,r             =    -0.122576128133 [Eh]
    Exch-Ind20,r (A<-B) =     0.035188345328 [Eh]
    Exch-Ind20,r (B<-A) =     0.036010669066 [Eh]
    Exch-Ind20,r        =     0.071199014394 [Eh]
    Disp20              =    -0.042930678572 [Eh]
    Disp20 (NO)         =    -0.040165687238 [Eh]
    Exch-Disp20         =     0.010357121208 [Eh]
    Elst12,r            =     0.000233041726 [Eh]
    Exch11              =    -0.001248070002 [Eh]
    Exch12              =     0.020468169540 [Eh]
    Ind22               =    -0.017698069478 [Eh]
    Disp21              =     0.006600467871 [Eh]
    Disp22 (SDQ)        =    -0.002265865349 [Eh]

    (i =   1 of   9)          3 seconds
    (i =   2 of   9)          6 seconds
    (i =   3 of   9)          8 seconds
    (i =   4 of   9)         11 seconds
    (i =   5 of   9)         13 seconds
    (i =   6 of   9)         16 seconds
    (i =   7 of   9)         19 seconds
    (i =   8 of   9)         21 seconds
    (i =   9 of   9)         24 seconds

    Disp220 (T)         =    -0.003168902630 [Eh]

    (i =   1 of   9)          2 seconds
    (i =   2 of   9)          5 seconds
    (i =   3 of   9)          8 seconds
    (i =   4 of   9)         10 seconds
    (i =   5 of   9)         13 seconds
    (i =   6 of   9)         15 seconds
    (i =   7 of   9)         18 seconds
    (i =   8 of   9)         20 seconds
    (i =   9 of   9)         22 seconds

    Disp202 (T)         =    -0.003032242334 [Eh]

    Disp22 (T)          =    -0.006201144963 [Eh]

    Est. Disp220 (T)    =    -0.003387048737 [Eh]
    Est. Disp202 (T)    =    -0.003240980795 [Eh]

    Est. Disp22 (T)     =    -0.006628029532 [Eh]

    SAPT Results 
  --------------------------------------------------------------------------------------------------------
    Electrostatics               -124.40900366 [mEh]     -78.06782842 [kcal/mol]    -326.63579411 [kJ/mol]
      Elst10,r                   -124.64204538 [mEh]     -78.21406431 [kcal/mol]    -327.24764507 [kJ/mol]
      Elst12,r                      0.23304173 [mEh]       0.14623589 [kcal/mol]       0.61185097 [kJ/mol]

    Exchange                      261.76964903 [mEh]     164.26293471 [kcal/mol]     687.27611884 [kJ/mol]
      Exch10                      242.54954949 [mEh]     152.20214017 [kcal/mol]     636.81375446 [kJ/mol]
      Exch10(S^2)                 227.99635923 [mEh]     143.06987540 [kcal/mol]     598.60435868 [kJ/mol]
      Exch11(S^2)                  -1.24807000 [mEh]      -0.78317575 [kcal/mol]      -3.27680734 [kJ/mol]
      Exch12(S^2)                  20.46816954 [mEh]      12.84397030 [kcal/mol]      53.73917172 [kJ/mol]

    Induction                     -98.67961045 [mEh]     -61.92239043 [kcal/mol]    -259.08328155 [kJ/mol]
      Ind20,r                    -122.57612813 [mEh]     -76.91768166 [kcal/mol]    -321.82358007 [kJ/mol]
      Ind22                       -17.69806948 [mEh]     -11.10570627 [kcal/mol]     -46.46627501 [kJ/mol]
      Exch-Ind20,r                 71.19901439 [mEh]      44.67805606 [kcal/mol]     186.93298654 [kJ/mol]
      Exch-Ind22                   10.28002045 [mEh]       6.45081022 [kcal/mol]      26.99018997 [kJ/mol]
      delta HF,r (2)              -39.88444768 [mEh]     -25.02786878 [kcal/mol]    -104.71660296 [kJ/mol]

    Dispersion                    -34.86698438 [mEh]     -21.87936302 [kcal/mol]     -91.54325487 [kJ/mol]
      Disp20                      -42.93067857 [mEh]     -26.93940752 [kcal/mol]    -112.71448106 [kJ/mol]
      Disp21                        6.60046787 [mEh]       4.14185612 [kcal/mol]      17.32952601 [kJ/mol]
      Disp22 (SDQ)                 -2.26586535 [mEh]      -1.42185197 [kcal/mol]      -5.94902865 [kJ/mol]
      Disp22 (T)                   -6.20114496 [mEh]      -3.89127721 [kcal/mol]     -16.28110386 [kJ/mol]
      Est. Disp22 (T)              -6.62802953 [mEh]      -4.15915132 [kcal/mol]     -17.40188914 [kJ/mol]
      Exch-Disp20                  10.35712121 [mEh]       6.49919168 [kcal/mol]      27.19261798 [kJ/mol]

  Total HF                         26.64594269 [mEh]      16.72058147 [kcal/mol]      69.95891289 [kJ/mol]
  Total SAPT0                      -5.92761468 [mEh]      -3.71963437 [kcal/mol]     -15.56295019 [kJ/mol]
  Total SAPT2                       6.10747756 [mEh]       3.83250003 [kcal/mol]      16.03518011 [kJ/mol]
  Total SAPT2+                      3.81405054 [mEh]       2.39335285 [kcal/mol]      10.01378833 [kJ/mol]

  Special recipe for scaled SAPT0 (see Manual):
    Electrostatics sSAPT0        -124.64204538 [mEh]     -78.21406431 [kcal/mol]    -327.24764507 [kJ/mol]
    Exchange sSAPT0               242.54954949 [mEh]     152.20214017 [kcal/mol]     636.81375446 [kJ/mol]
    Induction sSAPT0              -76.73870064 [mEh]     -48.15426166 [kcal/mol]    -201.47743078 [kJ/mol]
    Dispersion sSAPT0             -30.46095748 [mEh]     -19.11453940 [kcal/mol]     -79.97523285 [kJ/mol]
  Total sSAPT0                     10.70784598 [mEh]       6.71927480 [kcal/mol]      28.11344575 [kJ/mol]
  --------------------------------------------------------------------------------------------------------

*** tstop() called on node51.bme.utexas.edu at Mon Sep  9 20:56:03 2019
Module time:
	user time   =     277.69 seconds =       4.63 minutes
	system time =      10.46 seconds =       0.17 minutes
	total time  =         73 seconds =       1.22 minutes
Total time:
	user time   =     318.17 seconds =       5.30 minutes
	system time =      11.71 seconds =       0.20 minutes
	total time  =         85 seconds =       1.42 minutes

    Psi4 stopped on: Monday, 09 September 2019 08:56PM
    Psi4 wall time for execution: 0:01:25.12

*** Psi4 exiting successfully. Buy a developer a beer!
