
    -----------------------------------------------------------------------
          Psi4: An Open-Source Ab Initio Electronic Structure Package
                               Psi4 1.3.2 release

                         Git: Rev {HEAD} ecbda83 


    R. M. Parrish, L. A. Burns, D. G. A. Smith, A. C. Simmonett,
    A. E. DePrince III, E. G. Hohenstein, U. Bozkaya, A. Yu. Sokolov,
    R. Di Remigio, R. M. Richard, J. F. Gonthier, A. M. James,
    H. R. McAlexander, A. Kumar, M. Saitow, X. Wang, B. P. Pritchard,
    P. Verma, H. F. Schaefer III, K. Patkowski, R. A. King, E. F. Valeev,
    F. A. Evangelista, J. M. Turney, T. D. Crawford, and C. D. Sherrill,
    J. Chem. Theory Comput. 13(7) pp 3185--3197 (2017).
    (doi: 10.1021/acs.jctc.7b00174)


                         Additional Contributions by
    P. Kraus, H. Kruse, M. H. Lechner, M. C. Schieber, R. A. Shaw,
    A. Alenaizan, R. Galvelis, Z. L. Glick, S. Lehtola, and J. P. Misiewicz

    -----------------------------------------------------------------------


    Psi4 started on: Monday, 09 September 2019 03:44PM

    Process ID: 93093
    Host:       g2-node38.bme.utexas.edu
    PSIDATADIR: /home/xy3866/psi4conda/share/psi4
    Memory:     500.0 MiB
    Threads:    4
    
  ==> Input File <==

--------------------------------------------------------------------------
#psi4
#
memory 32 gb

molecule  {
0 1
  C        1.9047060    -0.1798760     0.0000010
  H        2.9930900    -0.2590830    -0.0000010
  O        1.1798480    -1.1602640     0.0000000
  O        1.5170880     1.0770050     0.0000000
  H        0.5236580     1.1098660     0.0000010
--
0 1
  C       -1.3653395     0.1632028    -0.0000010
  H       -2.4537295     0.2423448     0.0000000
  O       -0.6405405     1.1436348     0.0000000
  O       -0.9776395    -1.0936522     0.0000000
  H        0.0158065    -1.1264522     0.0000010
units angstrom
no_reorient  #important for SAPT in psi4, default
symmetry c1  #important for SAPT in psi4, default
}

set {
basis aug-cc-pVDZ
scf_type DF
freeze_core True
}
energy('sapt2+')
--------------------------------------------------------------------------

  Memory set to  29.802 GiB by Python driver.

  //>>>>>>>>>>>>>>>>>>>>>>>>>>>>>>>>>>>//
  //              Dimer HF             //
  //<<<<<<<<<<<<<<<<<<<<<<<<<<<<<<<<<<<//


*** tstart() called on g2-node38.bme.utexas.edu
*** at Mon Sep  9 15:44:21 2019

   => Loading Basis Set <=

    Name: AUG-CC-PVDZ
    Role: ORBITAL
    Keyword: BASIS
    atoms 1, 6        entry C          line   178 file /home/xy3866/psi4conda/share/psi4/basis/aug-cc-pvdz.gbs 
    atoms 2, 5, 7, 10 entry H          line    36 file /home/xy3866/psi4conda/share/psi4/basis/aug-cc-pvdz.gbs 
    atoms 3-4, 8-9    entry O          line   250 file /home/xy3866/psi4conda/share/psi4/basis/aug-cc-pvdz.gbs 


         ---------------------------------------------------------
                                   SCF
               by Justin Turney, Rob Parrish, Andy Simmonett
                          and Daniel G. A. Smith
                              RHF Reference
                        4 Threads,  30517 MiB Core
         ---------------------------------------------------------

  ==> Geometry <==

    Molecular point group: c1
    Full point group: C1

    Geometry (in Angstrom), charge = 0, multiplicity = 1:

       Center              X                  Y                   Z               Mass       
    ------------   -----------------  -----------------  -----------------  -----------------
         C            1.635017744043    -0.171551809567     0.000000989047    12.000000000000
         H            2.723401744043    -0.250758809567    -0.000001010953     1.007825032230
         O            0.910159744043    -1.151939809567    -0.000000010953    15.994914619570
         O            1.247399744043     1.085329190433    -0.000000010953    15.994914619570
         H            0.253969744043     1.118190190433     0.000000989047     1.007825032230
         C           -1.635027755957     0.171526990433    -0.000001010953    12.000000000000
         H           -2.723417755957     0.250668990433    -0.000000010953     1.007825032230
         O           -0.910228755957     1.151958990433    -0.000000010953    15.994914619570
         O           -1.247327755957    -1.085328009567    -0.000000010953    15.994914619570
         H           -0.253881755957    -1.118128009567     0.000000989047     1.007825032230

  Running in c1 symmetry.

  Rotational constants: A =      0.20209  B =      0.10835  C =      0.07053 [cm^-1]
  Rotational constants: A =   6058.52839  B =   3248.27554  C =   2114.55723 [MHz]
  Nuclear repulsion =  253.604278299098553

  Charge       = 0
  Multiplicity = 1
  Electrons    = 48
  Nalpha       = 24
  Nbeta        = 24

  ==> Algorithm <==

  SCF Algorithm Type is DF.
  DIIS enabled.
  MOM disabled.
  Fractional occupation disabled.
  Guess Type is SAD.
  Energy threshold   = 1.00e-08
  Density threshold  = 1.00e-08
  Integral threshold = 0.00e+00

  ==> Primary Basis <==

  Basis Set: AUG-CC-PVDZ
    Blend: AUG-CC-PVDZ
    Number of shells: 74
    Number of basis function: 174
    Number of Cartesian functions: 186
    Spherical Harmonics?: true
    Max angular momentum: 2

   => Loading Basis Set <=

    Name: (AUG-CC-PVDZ AUX)
    Role: JKFIT
    Keyword: DF_BASIS_SCF
    atoms 1, 6        entry C          line   154 file /home/xy3866/psi4conda/share/psi4/basis/aug-cc-pvdz-jkfit.gbs 
    atoms 2, 5, 7, 10 entry H          line    70 file /home/xy3866/psi4conda/share/psi4/basis/aug-cc-pvdz-jkfit.gbs 
    atoms 3-4, 8-9    entry O          line   270 file /home/xy3866/psi4conda/share/psi4/basis/aug-cc-pvdz-jkfit.gbs 

  ==> Pre-Iterations <==

   -------------------------------------------------------
    Irrep   Nso     Nmo     Nalpha   Nbeta   Ndocc  Nsocc
   -------------------------------------------------------
     A        174     174       0       0       0       0
   -------------------------------------------------------
    Total     174     174      24      24      24       0
   -------------------------------------------------------

  ==> Integral Setup <==

  ==> DiskDFJK: Density-Fitted J/K Matrices <==

    J tasked:                  Yes
    K tasked:                  Yes
    wK tasked:                  No
    OpenMP threads:              4
    Integrals threads:           4
    Memory [MiB]:            22888
    Algorithm:                Core
    Integral Cache:           SAVE
    Schwarz Cutoff:          1E-12
    Fitting Condition:       1E-10

   => Auxiliary Basis Set <=

  Basis Set: (AUG-CC-PVDZ AUX)
    Blend: AUG-CC-PVDZ-JKFIT
    Number of shells: 216
    Number of basis function: 644
    Number of Cartesian functions: 746
    Spherical Harmonics?: true
    Max angular momentum: 3

  Minimum eigenvalue in the overlap matrix is 2.7183032172E-04.
  Using Symmetric Orthogonalization.

  SCF Guess: Superposition of Atomic Densities via on-the-fly atomic UHF.

  ==> Iterations <==

                           Total Energy        Delta E     RMS |[F,P]|

   @DF-RHF iter SAD:  -376.85730914597883   -3.76857e+02   0.00000e+00 
   @DF-RHF iter   1:  -377.36423115739910   -5.06922e-01   3.96831e-03 DIIS
   @DF-RHF iter   2:  -377.48511435410364   -1.20883e-01   2.43542e-03 DIIS
   @DF-RHF iter   3:  -377.54769846345778   -6.25841e-02   2.62961e-04 DIIS
   @DF-RHF iter   4:  -377.54921890263398   -1.52044e-03   5.57273e-05 DIIS
   @DF-RHF iter   5:  -377.54931289810247   -9.39955e-05   2.01075e-05 DIIS
   @DF-RHF iter   6:  -377.54933136211565   -1.84640e-05   5.64301e-06 DIIS
   @DF-RHF iter   7:  -377.54933315574704   -1.79363e-06   2.23280e-06 DIIS
   @DF-RHF iter   8:  -377.54933340540737   -2.49660e-07   6.52381e-07 DIIS
   @DF-RHF iter   9:  -377.54933342568211   -2.02747e-08   3.87309e-07 DIIS
   @DF-RHF iter  10:  -377.54933342889586   -3.21376e-09   9.30483e-08 DIIS
   @DF-RHF iter  11:  -377.54933342927666   -3.80794e-10   2.17975e-08 DIIS
   @DF-RHF iter  12:  -377.54933342929581   -1.91562e-11   3.58808e-09 DIIS
  Energy and wave function converged.


  ==> Post-Iterations <==

    Orbital Energies [Eh]
    ---------------------

    Doubly Occupied:                                                      

       1A    -20.591999     2A    -20.591981     3A    -20.587807  
       4A    -20.587775     5A    -11.423548     6A    -11.423526  
       7A     -1.520028     8A     -1.467770     9A     -1.424919  
      10A     -1.365444    11A     -0.973896    12A     -0.872867  
      13A     -0.846178    14A     -0.747786    15A     -0.718388  
      16A     -0.678066    17A     -0.657753    18A     -0.630141  
      19A     -0.624618    20A     -0.575575    21A     -0.521655  
      22A     -0.496627    23A     -0.482662    24A     -0.461497  

    Virtual:                                                              

      25A      0.035596    26A      0.040129    27A      0.067004  
      28A      0.070660    29A      0.077027    30A      0.094219  
      31A      0.104292    32A      0.132448    33A      0.133845  
      34A      0.135182    35A      0.153349    36A      0.158500  
      37A      0.161956    38A      0.177711    39A      0.205718  
      40A      0.232316    41A      0.238581    42A      0.258030  
      43A      0.260653    44A      0.269967    45A      0.286442  
      46A      0.294057    47A      0.299998    48A      0.309534  
      49A      0.328719    50A      0.334112    51A      0.348025  
      52A      0.358116    53A      0.370223    54A      0.380453  
      55A      0.383978    56A      0.409416    57A      0.412736  
      58A      0.421203    59A      0.456047    60A      0.467073  
      61A      0.497184    62A      0.514850    63A      0.545018  
      64A      0.566711    65A      0.569122    66A      0.591318  
      67A      0.613131    68A      0.627694    69A      0.630926  
      70A      0.660920    71A      0.666881    72A      0.677047  
      73A      0.680884    74A      0.704081    75A      0.706578  
      76A      0.709025    77A      0.719616    78A      0.753913  
      79A      0.758549    80A      0.777464    81A      0.812189  
      82A      0.852101    83A      0.855906    84A      0.904710  
      85A      0.923877    86A      0.950291    87A      0.983713  
      88A      1.001736    89A      1.006696    90A      1.015813  
      91A      1.032687    92A      1.067019    93A      1.087165  
      94A      1.114861    95A      1.147480    96A      1.183478  
      97A      1.194932    98A      1.207837    99A      1.222705  
     100A      1.257519   101A      1.278086   102A      1.304163  
     103A      1.343812   104A      1.409114   105A      1.410980  
     106A      1.444786   107A      1.510516   108A      1.544612  
     109A      1.556923   110A      1.593208   111A      1.631142  
     112A      1.655998   113A      1.665392   114A      1.678228  
     115A      1.693412   116A      1.735980   117A      1.740577  
     118A      1.762191   119A      1.765991   120A      1.777076  
     121A      1.797813   122A      1.856064   123A      1.914104  
     124A      1.914232   125A      1.987440   126A      1.995205  
     127A      2.057224   128A      2.058441   129A      2.058609  
     130A      2.151960   131A      2.181197   132A      2.229090  
     133A      2.253232   134A      2.270825   135A      2.320749  
     136A      2.415258   137A      2.475155   138A      2.488854  
     139A      2.524832   140A      2.571996   141A      2.656064  
     142A      2.726831   143A      2.737201   144A      2.855194  
     145A      2.904248   146A      2.995656   147A      3.023543  
     148A      3.050612   149A      3.162418   150A      3.175688  
     151A      3.272831   152A      3.340542   153A      3.427395  
     154A      3.484712   155A      3.651295   156A      3.689366  
     157A      3.718707   158A      3.727071   159A      3.768453  
     160A      3.777494   161A      3.781646   162A      3.807395  
     163A      3.808903   164A      3.819440   165A      3.879283  
     166A      3.953721   167A      3.999939   168A      4.035367  
     169A      4.151005   170A      4.157283   171A      4.218951  
     172A      4.236159   173A      4.822673   174A      4.865990  

    Final Occupation by Irrep:
              A 
    DOCC [    24 ]

  @DF-RHF Final Energy:  -377.54933342929581

   => Energetics <=

    Nuclear Repulsion Energy =            253.6042782990985529
    One-Electron Energy =               -1021.7622086566851749
    Two-Electron Energy =                 390.6085969282907513
    Total Energy =                       -377.5493334292958139

Computation Completed


Properties will be evaluated at   0.000000,   0.000000,   0.000000 [a0]

Properties computed using the SCF density matrix

  Nuclear Dipole Moment: [e a0]
     X:     0.0001      Y:    -0.0000      Z:     0.0000

  Electronic Dipole Moment: [e a0]
     X:     0.0002      Y:     0.0000      Z:     0.0000

  Dipole Moment: [e a0]
     X:     0.0003      Y:    -0.0000      Z:     0.0000     Total:     0.0003

  Dipole Moment: [D]
     X:     0.0007      Y:    -0.0001      Z:     0.0000     Total:     0.0007


*** tstop() called on g2-node38.bme.utexas.edu at Mon Sep  9 15:44:27 2019
Module time:
	user time   =      16.30 seconds =       0.27 minutes
	system time =       0.62 seconds =       0.01 minutes
	total time  =          6 seconds =       0.10 minutes
Total time:
	user time   =      16.30 seconds =       0.27 minutes
	system time =       0.62 seconds =       0.01 minutes
	total time  =          6 seconds =       0.10 minutes

  //>>>>>>>>>>>>>>>>>>>>>>>>>>>>>>>>>>>//
  //            Monomer A HF           //
  //<<<<<<<<<<<<<<<<<<<<<<<<<<<<<<<<<<<//


*** tstart() called on g2-node38.bme.utexas.edu
*** at Mon Sep  9 15:44:27 2019

   => Loading Basis Set <=

    Name: AUG-CC-PVDZ
    Role: ORBITAL
    Keyword: BASIS
    atoms 1, 6        entry C          line   178 file /home/xy3866/psi4conda/share/psi4/basis/aug-cc-pvdz.gbs 
    atoms 2, 5, 7, 10 entry H          line    36 file /home/xy3866/psi4conda/share/psi4/basis/aug-cc-pvdz.gbs 
    atoms 3-4, 8-9    entry O          line   250 file /home/xy3866/psi4conda/share/psi4/basis/aug-cc-pvdz.gbs 


         ---------------------------------------------------------
                                   SCF
               by Justin Turney, Rob Parrish, Andy Simmonett
                          and Daniel G. A. Smith
                              RHF Reference
                        4 Threads,  30517 MiB Core
         ---------------------------------------------------------

  ==> Geometry <==

    Molecular point group: c1
    Full point group: C1

    Geometry (in Angstrom), charge = 0, multiplicity = 1:

       Center              X                  Y                   Z               Mass       
    ------------   -----------------  -----------------  -----------------  -----------------
         C            1.635017744043    -0.171551809567     0.000000989047    12.000000000000
         H            2.723401744043    -0.250758809567    -0.000001010953     1.007825032230
         O            0.910159744043    -1.151939809567    -0.000000010953    15.994914619570
         O            1.247399744043     1.085329190433    -0.000000010953    15.994914619570
         H            0.253969744043     1.118190190433     0.000000989047     1.007825032230
      Gh(C)          -1.635027755957     0.171526990433    -0.000001010953    12.000000000000
      Gh(H)          -2.723417755957     0.250668990433    -0.000000010953     1.007825032230
      Gh(O)          -0.910228755957     1.151958990433    -0.000000010953    15.994914619570
      Gh(O)          -1.247327755957    -1.085328009567    -0.000000010953    15.994914619570
      Gh(H)          -0.253881755957    -1.118128009567     0.000000989047     1.007825032230

  Running in c1 symmetry.

  Rotational constants: A =      0.20209  B =      0.10835  C =      0.07053 [cm^-1]
  Rotational constants: A =   6058.52839  B =   3248.27554  C =   2114.55723 [MHz]
  Nuclear repulsion =   70.158093840579681

  Charge       = 0
  Multiplicity = 1
  Electrons    = 24
  Nalpha       = 12
  Nbeta        = 12

  ==> Algorithm <==

  SCF Algorithm Type is DF.
  DIIS enabled.
  MOM disabled.
  Fractional occupation disabled.
  Guess Type is SAD.
  Energy threshold   = 1.00e-08
  Density threshold  = 1.00e-08
  Integral threshold = 0.00e+00

  ==> Primary Basis <==

  Basis Set: AUG-CC-PVDZ
    Blend: AUG-CC-PVDZ
    Number of shells: 74
    Number of basis function: 174
    Number of Cartesian functions: 186
    Spherical Harmonics?: true
    Max angular momentum: 2

   => Loading Basis Set <=

    Name: (AUG-CC-PVDZ AUX)
    Role: JKFIT
    Keyword: DF_BASIS_SCF
    atoms 1, 6        entry C          line   154 file /home/xy3866/psi4conda/share/psi4/basis/aug-cc-pvdz-jkfit.gbs 
    atoms 2, 5, 7, 10 entry H          line    70 file /home/xy3866/psi4conda/share/psi4/basis/aug-cc-pvdz-jkfit.gbs 
    atoms 3-4, 8-9    entry O          line   270 file /home/xy3866/psi4conda/share/psi4/basis/aug-cc-pvdz-jkfit.gbs 

  ==> Pre-Iterations <==

   -------------------------------------------------------
    Irrep   Nso     Nmo     Nalpha   Nbeta   Ndocc  Nsocc
   -------------------------------------------------------
     A        174     174       0       0       0       0
   -------------------------------------------------------
    Total     174     174      12      12      12       0
   -------------------------------------------------------

  ==> Integral Setup <==

  ==> DiskDFJK: Density-Fitted J/K Matrices <==

    J tasked:                  Yes
    K tasked:                  Yes
    wK tasked:                  No
    OpenMP threads:              4
    Integrals threads:           4
    Memory [MiB]:            22888
    Algorithm:                Core
    Integral Cache:           LOAD
    Schwarz Cutoff:          1E-12
    Fitting Condition:       1E-10

   => Auxiliary Basis Set <=

  Basis Set: (AUG-CC-PVDZ AUX)
    Blend: AUG-CC-PVDZ-JKFIT
    Number of shells: 216
    Number of basis function: 644
    Number of Cartesian functions: 746
    Spherical Harmonics?: true
    Max angular momentum: 3

  Minimum eigenvalue in the overlap matrix is 2.7183032172E-04.
  Using Symmetric Orthogonalization.

  SCF Guess: Superposition of Atomic Densities via on-the-fly atomic UHF.

  ==> Iterations <==

                           Total Energy        Delta E     RMS |[F,P]|

   @DF-RHF iter SAD:  -187.96598957683622   -1.87966e+02   0.00000e+00 
   @DF-RHF iter   1:  -188.68805642363387   -7.22067e-01   2.91579e-03 DIIS
   @DF-RHF iter   2:  -188.75119641033527   -6.31400e-02   2.02082e-03 DIIS
   @DF-RHF iter   3:  -188.79408924980808   -4.28928e-02   2.49345e-04 DIIS
   @DF-RHF iter   4:  -188.79521652395877   -1.12727e-03   1.27194e-04 DIIS
   @DF-RHF iter   5:  -188.79549063427498   -2.74110e-04   2.99132e-05 DIIS
   @DF-RHF iter   6:  -188.79552856991907   -3.79356e-05   1.31246e-05 DIIS
   @DF-RHF iter   7:  -188.79553721904009   -8.64912e-06   4.50264e-06 DIIS
   @DF-RHF iter   8:  -188.79553809619307   -8.77153e-07   1.42221e-06 DIIS
   @DF-RHF iter   9:  -188.79553818272603   -8.65330e-08   3.88160e-07 DIIS
   @DF-RHF iter  10:  -188.79553818899996   -6.27392e-09   8.01299e-08 DIIS
   @DF-RHF iter  11:  -188.79553818924157   -2.41613e-10   1.32275e-08 DIIS
   @DF-RHF iter  12:  -188.79553818924782   -6.25278e-12   2.74299e-09 DIIS
  Energy and wave function converged.


  ==> Post-Iterations <==

    Orbital Energies [Eh]
    ---------------------

    Doubly Occupied:                                                      

       1A    -20.646581     2A    -20.572517     3A    -11.406651  
       4A     -1.486844     5A     -1.373848     6A     -0.903974  
       7A     -0.732362     8A     -0.713812     9A     -0.643793  
      10A     -0.597915    11A     -0.490251    12A     -0.470051  

    Virtual:                                                              

      13A      0.026652    14A      0.039737    15A      0.055846  
      16A      0.071171    17A      0.078639    18A      0.097705  
      19A      0.098047    20A      0.105546    21A      0.133602  
      22A      0.141931    23A      0.157919    24A      0.163203  
      25A      0.164332    26A      0.183940    27A      0.185510  
      28A      0.223096    29A      0.231152    30A      0.235077  
      31A      0.248440    32A      0.257218    33A      0.278425  
      34A      0.287521    35A      0.295723    36A      0.302499  
      37A      0.313127    38A      0.323290    39A      0.337623  
      40A      0.361626    41A      0.389674    42A      0.395266  
      43A      0.396348    44A      0.399619    45A      0.429590  
      46A      0.442394    47A      0.470583    48A      0.474055  
      49A      0.502175    50A      0.522470    51A      0.525632  
      52A      0.562705    53A      0.578726    54A      0.596414  
      55A      0.604364    56A      0.608275    57A      0.614572  
      58A      0.642090    59A      0.671429    60A      0.675424  
      61A      0.693175    62A      0.693545    63A      0.695251  
      64A      0.707606    65A      0.748401    66A      0.768871  
      67A      0.806849    68A      0.811917    69A      0.835460  
      70A      0.844261    71A      0.886585    72A      0.914416  
      73A      0.942733    74A      0.972396    75A      0.995627  
      76A      1.008748    77A      1.038954    78A      1.060025  
      79A      1.119321    80A      1.134741    81A      1.149775  
      82A      1.172394    83A      1.196920    84A      1.203258  
      85A      1.230925    86A      1.257858    87A      1.257953  
      88A      1.345992    89A      1.363950    90A      1.400126  
      91A      1.403924    92A      1.440698    93A      1.462484  
      94A      1.467095    95A      1.468425    96A      1.492031  
      97A      1.497353    98A      1.550831    99A      1.561238  
     100A      1.611467   101A      1.627512   102A      1.628544  
     103A      1.670086   104A      1.682383   105A      1.728731  
     106A      1.730023   107A      1.780886   108A      1.818254  
     109A      1.897128   110A      1.904924   111A      2.006344  
     112A      2.060373   113A      2.073042   114A      2.107913  
     115A      2.173760   116A      2.186320   117A      2.196641  
     118A      2.250059   119A      2.322469   120A      2.363561  
     121A      2.433755   122A      2.450785   123A      2.489662  
     124A      2.588755   125A      2.688843   126A      2.724214  
     127A      2.767978   128A      2.871627   129A      2.934707  
     130A      2.935910   131A      2.969270   132A      3.054699  
     133A      3.114537   134A      3.161838   135A      3.275691  
     136A      3.314414   137A      3.343004   138A      3.437737  
     139A      3.501205   140A      3.632733   141A      3.668104  
     142A      3.747134   143A      3.753512   144A      3.831313  
     145A      3.851648   146A      3.862917   147A      3.902924  
     148A      4.048720   149A      4.198940   150A      4.234301  
     151A      4.290963   152A      4.366677   153A      4.575208  
     154A      4.683924   155A      4.884779   156A      4.951245  
     157A      4.988925   158A      5.009621   159A      5.009699  
     160A      5.122456   161A      5.190788   162A      5.552793  
     163A      5.598854   164A      5.763153   165A      5.821579  
     166A      5.912399   167A      6.024282   168A      6.425232  
     169A      6.784246   170A      7.099094   171A      7.570632  
     172A     18.644627   173A     33.485776   174A     33.645475  

    Final Occupation by Irrep:
              A 
    DOCC [    12 ]

  @DF-RHF Final Energy:  -188.79553818924782

   => Energetics <=

    Nuclear Repulsion Energy =             70.1580938405796815
    One-Electron Energy =                -397.8300683134292512
    Two-Electron Energy =                 138.8764362836017483
    Total Energy =                       -188.7955381892478215

Computation Completed


Properties will be evaluated at   0.000000,   0.000000,   0.000000 [a0]

Properties computed using the SCF density matrix

  Nuclear Dipole Moment: [e a0]
     X:    56.7824      Y:    -1.3129      Z:     0.0000

  Electronic Dipole Moment: [e a0]
     X:   -56.5911      Y:     2.0965      Z:    -0.0000

  Dipole Moment: [e a0]
     X:     0.1914      Y:     0.7836      Z:     0.0000     Total:     0.8067

  Dipole Moment: [D]
     X:     0.4864      Y:     1.9918      Z:     0.0000     Total:     2.0503


*** tstop() called on g2-node38.bme.utexas.edu at Mon Sep  9 15:44:30 2019
Module time:
	user time   =      11.22 seconds =       0.19 minutes
	system time =       0.42 seconds =       0.01 minutes
	total time  =          3 seconds =       0.05 minutes
Total time:
	user time   =      27.55 seconds =       0.46 minutes
	system time =       1.04 seconds =       0.02 minutes
	total time  =          9 seconds =       0.15 minutes

  //>>>>>>>>>>>>>>>>>>>>>>>>>>>>>>>>>>>//
  //            Monomer B HF           //
  //<<<<<<<<<<<<<<<<<<<<<<<<<<<<<<<<<<<//


*** tstart() called on g2-node38.bme.utexas.edu
*** at Mon Sep  9 15:44:30 2019

   => Loading Basis Set <=

    Name: AUG-CC-PVDZ
    Role: ORBITAL
    Keyword: BASIS
    atoms 1, 6        entry C          line   178 file /home/xy3866/psi4conda/share/psi4/basis/aug-cc-pvdz.gbs 
    atoms 2, 5, 7, 10 entry H          line    36 file /home/xy3866/psi4conda/share/psi4/basis/aug-cc-pvdz.gbs 
    atoms 3-4, 8-9    entry O          line   250 file /home/xy3866/psi4conda/share/psi4/basis/aug-cc-pvdz.gbs 


         ---------------------------------------------------------
                                   SCF
               by Justin Turney, Rob Parrish, Andy Simmonett
                          and Daniel G. A. Smith
                              RHF Reference
                        4 Threads,  30517 MiB Core
         ---------------------------------------------------------

  ==> Geometry <==

    Molecular point group: c1
    Full point group: C1

    Geometry (in Angstrom), charge = 0, multiplicity = 1:

       Center              X                  Y                   Z               Mass       
    ------------   -----------------  -----------------  -----------------  -----------------
      Gh(C)           1.635017744043    -0.171551809567     0.000000989047    12.000000000000
      Gh(H)           2.723401744043    -0.250758809567    -0.000001010953     1.007825032230
      Gh(O)           0.910159744043    -1.151939809567    -0.000000010953    15.994914619570
      Gh(O)           1.247399744043     1.085329190433    -0.000000010953    15.994914619570
      Gh(H)           0.253969744043     1.118190190433     0.000000989047     1.007825032230
         C           -1.635027755957     0.171526990433    -0.000001010953    12.000000000000
         H           -2.723417755957     0.250668990433    -0.000000010953     1.007825032230
         O           -0.910228755957     1.151958990433    -0.000000010953    15.994914619570
         O           -1.247327755957    -1.085328009567    -0.000000010953    15.994914619570
         H           -0.253881755957    -1.118128009567     0.000000989047     1.007825032230

  Running in c1 symmetry.

  Rotational constants: A =      0.20209  B =      0.10835  C =      0.07053 [cm^-1]
  Rotational constants: A =   6058.52839  B =   3248.27554  C =   2114.55723 [MHz]
  Nuclear repulsion =   70.158037218475897

  Charge       = 0
  Multiplicity = 1
  Electrons    = 24
  Nalpha       = 12
  Nbeta        = 12

  ==> Algorithm <==

  SCF Algorithm Type is DF.
  DIIS enabled.
  MOM disabled.
  Fractional occupation disabled.
  Guess Type is SAD.
  Energy threshold   = 1.00e-08
  Density threshold  = 1.00e-08
  Integral threshold = 0.00e+00

  ==> Primary Basis <==

  Basis Set: AUG-CC-PVDZ
    Blend: AUG-CC-PVDZ
    Number of shells: 74
    Number of basis function: 174
    Number of Cartesian functions: 186
    Spherical Harmonics?: true
    Max angular momentum: 2

   => Loading Basis Set <=

    Name: (AUG-CC-PVDZ AUX)
    Role: JKFIT
    Keyword: DF_BASIS_SCF
    atoms 1, 6        entry C          line   154 file /home/xy3866/psi4conda/share/psi4/basis/aug-cc-pvdz-jkfit.gbs 
    atoms 2, 5, 7, 10 entry H          line    70 file /home/xy3866/psi4conda/share/psi4/basis/aug-cc-pvdz-jkfit.gbs 
    atoms 3-4, 8-9    entry O          line   270 file /home/xy3866/psi4conda/share/psi4/basis/aug-cc-pvdz-jkfit.gbs 

  ==> Pre-Iterations <==

   -------------------------------------------------------
    Irrep   Nso     Nmo     Nalpha   Nbeta   Ndocc  Nsocc
   -------------------------------------------------------
     A        174     174       0       0       0       0
   -------------------------------------------------------
    Total     174     174      12      12      12       0
   -------------------------------------------------------

  ==> Integral Setup <==

  ==> DiskDFJK: Density-Fitted J/K Matrices <==

    J tasked:                  Yes
    K tasked:                  Yes
    wK tasked:                  No
    OpenMP threads:              4
    Integrals threads:           4
    Memory [MiB]:            22888
    Algorithm:                Core
    Integral Cache:           LOAD
    Schwarz Cutoff:          1E-12
    Fitting Condition:       1E-10

   => Auxiliary Basis Set <=

  Basis Set: (AUG-CC-PVDZ AUX)
    Blend: AUG-CC-PVDZ-JKFIT
    Number of shells: 216
    Number of basis function: 644
    Number of Cartesian functions: 746
    Spherical Harmonics?: true
    Max angular momentum: 3

  Minimum eigenvalue in the overlap matrix is 2.7183032172E-04.
  Using Symmetric Orthogonalization.

  SCF Guess: Superposition of Atomic Densities via on-the-fly atomic UHF.

  ==> Iterations <==

                           Total Energy        Delta E     RMS |[F,P]|

   @DF-RHF iter SAD:  -187.96597999911120   -1.87966e+02   0.00000e+00 
   @DF-RHF iter   1:  -188.68805493289099   -7.22075e-01   2.91579e-03 DIIS
   @DF-RHF iter   2:  -188.75119518392816   -6.31403e-02   2.02083e-03 DIIS
   @DF-RHF iter   3:  -188.79408822155244   -4.28930e-02   2.49345e-04 DIIS
   @DF-RHF iter   4:  -188.79521550830472   -1.12729e-03   1.27195e-04 DIIS
   @DF-RHF iter   5:  -188.79548962385036   -2.74116e-04   2.99137e-05 DIIS
   @DF-RHF iter   6:  -188.79552756070461   -3.79369e-05   1.31247e-05 DIIS
   @DF-RHF iter   7:  -188.79553621007426   -8.64937e-06   4.50269e-06 DIIS
   @DF-RHF iter   8:  -188.79553708724990   -8.77176e-07   1.42223e-06 DIIS
   @DF-RHF iter   9:  -188.79553717378619   -8.65363e-08   3.88167e-07 DIIS
   @DF-RHF iter  10:  -188.79553718006036   -6.27418e-09   8.01310e-08 DIIS
   @DF-RHF iter  11:  -188.79553718030198   -2.41613e-10   1.32277e-08 DIIS
   @DF-RHF iter  12:  -188.79553718030860   -6.62226e-12   2.74303e-09 DIIS
  Energy and wave function converged.


  ==> Post-Iterations <==

    Orbital Energies [Eh]
    ---------------------

    Doubly Occupied:                                                      

       1A    -20.646581     2A    -20.572516     3A    -11.406651  
       4A     -1.486842     5A     -1.373846     6A     -0.903971  
       7A     -0.732361     8A     -0.713810     9A     -0.643793  
      10A     -0.597914    11A     -0.490251    12A     -0.470050  

    Virtual:                                                              

      13A      0.026651    14A      0.039737    15A      0.055847  
      16A      0.071170    17A      0.078638    18A      0.097705  
      19A      0.098048    20A      0.105544    21A      0.133601  
      22A      0.141931    23A      0.157920    24A      0.163204  
      25A      0.164332    26A      0.183942    27A      0.185510  
      28A      0.223094    29A      0.231149    30A      0.235075  
      31A      0.248439    32A      0.257220    33A      0.278426  
      34A      0.287521    35A      0.295721    36A      0.302499  
      37A      0.313127    38A      0.323288    39A      0.337622  
      40A      0.361627    41A      0.389675    42A      0.395265  
      43A      0.396349    44A      0.399621    45A      0.429589  
      46A      0.442397    47A      0.470583    48A      0.474055  
      49A      0.502171    50A      0.522471    51A      0.525627  
      52A      0.562693    53A      0.578726    54A      0.596413  
      55A      0.604365    56A      0.608273    57A      0.614570  
      58A      0.642095    59A      0.671434    60A      0.675424  
      61A      0.693174    62A      0.693537    63A      0.695252  
      64A      0.707603    65A      0.748400    66A      0.768865  
      67A      0.806859    68A      0.811919    69A      0.835452  
      70A      0.844260    71A      0.886574    72A      0.914415  
      73A      0.942742    74A      0.972394    75A      0.995615  
      76A      1.008749    77A      1.038964    78A      1.060030  
      79A      1.119314    80A      1.134742    81A      1.149782  
      82A      1.172405    83A      1.196930    84A      1.203248  
      85A      1.230913    86A      1.257863    87A      1.257958  
      88A      1.345985    89A      1.363952    90A      1.400121  
      91A      1.403917    92A      1.440692    93A      1.462466  
      94A      1.467103    95A      1.468424    96A      1.492036  
      97A      1.497348    98A      1.550813    99A      1.561247  
     100A      1.611461   101A      1.627503   102A      1.628553  
     103A      1.670074   104A      1.682395   105A      1.728739  
     106A      1.730023   107A      1.780882   108A      1.818240  
     109A      1.897132   110A      1.904878   111A      2.006376  
     112A      2.060383   113A      2.073031   114A      2.107914  
     115A      2.173808   116A      2.186339   117A      2.196655  
     118A      2.250040   119A      2.322466   120A      2.363538  
     121A      2.433754   122A      2.450839   123A      2.489656  
     124A      2.588769   125A      2.688846   126A      2.724193  
     127A      2.767962   128A      2.871653   129A      2.934666  
     130A      2.935889   131A      2.969289   132A      3.054678  
     133A      3.114554   134A      3.161839   135A      3.275647  
     136A      3.314410   137A      3.342934   138A      3.437737  
     139A      3.501199   140A      3.632744   141A      3.668109  
     142A      3.747139   143A      3.753525   144A      3.831322  
     145A      3.851628   146A      3.862874   147A      3.902919  
     148A      4.048729   149A      4.198922   150A      4.234246  
     151A      4.290952   152A      4.366665   153A      4.575133  
     154A      4.683891   155A      4.884759   156A      4.951232  
     157A      4.988915   158A      5.009614   159A      5.009687  
     160A      5.122438   161A      5.190763   162A      5.552754  
     163A      5.598833   164A      5.763152   165A      5.821569  
     166A      5.912388   167A      6.024317   168A      6.425507  
     169A      6.784235   170A      7.099234   171A      7.570543  
     172A     18.644636   173A     33.485814   174A     33.645453  

    Final Occupation by Irrep:
              A 
    DOCC [    12 ]

  @DF-RHF Final Energy:  -188.79553718030860

   => Energetics <=

    Nuclear Repulsion Energy =             70.1580372184758971
    One-Electron Energy =                -397.8299794019287674
    Two-Electron Energy =                 138.8764050031442707
    Total Energy =                       -188.7955371803085995

Computation Completed


Properties will be evaluated at   0.000000,   0.000000,   0.000000 [a0]

Properties computed using the SCF density matrix

  Nuclear Dipole Moment: [e a0]
     X:   -56.7823      Y:     1.3129      Z:    -0.0000

  Electronic Dipole Moment: [e a0]
     X:    56.5910      Y:    -2.0965      Z:     0.0000

  Dipole Moment: [e a0]
     X:    -0.1913      Y:    -0.7836      Z:    -0.0000     Total:     0.8067

  Dipole Moment: [D]
     X:    -0.4862      Y:    -1.9918      Z:    -0.0000     Total:     2.0503


*** tstop() called on g2-node38.bme.utexas.edu at Mon Sep  9 15:44:33 2019
Module time:
	user time   =       9.23 seconds =       0.15 minutes
	system time =       0.33 seconds =       0.01 minutes
	total time  =          3 seconds =       0.05 minutes
Total time:
	user time   =      36.80 seconds =       0.61 minutes
	system time =       1.38 seconds =       0.02 minutes
	total time  =         12 seconds =       0.20 minutes
  Constructing Basis Sets for SAPT...

   => Loading Basis Set <=

    Name: (AUG-CC-PVDZ AUX)
    Role: RIFIT
    Keyword: DF_BASIS_SAPT
    atoms 1, 6        entry C          line   112 file /home/xy3866/psi4conda/share/psi4/basis/aug-cc-pvdz-ri.gbs 
    atoms 2, 5, 7, 10 entry H          line    30 file /home/xy3866/psi4conda/share/psi4/basis/aug-cc-pvdz-ri.gbs 
    atoms 3-4, 8-9    entry O          line   204 file /home/xy3866/psi4conda/share/psi4/basis/aug-cc-pvdz-ri.gbs 


  //>>>>>>>>>>>>>>>>>>>>>>>>>>>>>>>>>>>//
  //               SAPT2+              //
  //<<<<<<<<<<<<<<<<<<<<<<<<<<<<<<<<<<<//


*** tstart() called on g2-node38.bme.utexas.edu
*** at Mon Sep  9 15:44:34 2019

        SAPT2+  
    Ed Hohenstein
     6 June 2009

      Orbital Information
  --------------------------
    NSO        =       174
    NMO        =       174
    NRI        =       524
    NOCC A     =        12
    NOCC B     =        12
    FOCC A     =         3
    FOCC B     =         3
    NVIR A     =       162
    NVIR B     =       162

    Estimated memory usage: 200.7 MB

    Natural Orbital Cutoff:   1.000E-06
    Disp(T3) Truncation:            Yes
    CCD (vv|vv) Truncation:         Yes
    MBPT T2 Truncation:             Yes

    Monomer A: 72 virtual orbitals dropped
    Monomer B: 72 virtual orbitals dropped

    Elst10,r            =    -0.146911495794 [Eh]
    Exch10 (S^2)        =     0.301487325637 [Eh]
    Exch10              =     0.325197311344 [Eh]
    Ind20,r (A<-B)      =    -0.096105272522 [Eh]
    Ind20,r (B<-A)      =    -0.096111468912 [Eh]
    Ind20,r             =    -0.192216741434 [Eh]
    Exch-Ind20,r (A<-B) =     0.053841101864 [Eh]
    Exch-Ind20,r (B<-A) =     0.053862410925 [Eh]
    Exch-Ind20,r        =     0.107703512789 [Eh]
    Disp20              =    -0.050326561690 [Eh]
    Disp20 (NO)         =    -0.047167808281 [Eh]
    Exch-Disp20         =     0.012286768358 [Eh]
    Elst12,r            =    -0.001097316326 [Eh]
    Exch11              =    -0.003317041821 [Eh]
    Exch12              =     0.028710993122 [Eh]
    Ind22               =    -0.029605393182 [Eh]
    Disp21              =     0.008138029175 [Eh]
    Disp22 (SDQ)        =    -0.003697851825 [Eh]

    (i =   1 of   9)          2 seconds
    (i =   2 of   9)          4 seconds
    (i =   3 of   9)          6 seconds
    (i =   4 of   9)          9 seconds
    (i =   5 of   9)         11 seconds
    (i =   6 of   9)         13 seconds
    (i =   7 of   9)         15 seconds
    (i =   8 of   9)         17 seconds
    (i =   9 of   9)         20 seconds

    Disp220 (T)         =    -0.003670394667 [Eh]

    (i =   1 of   9)          2 seconds
    (i =   2 of   9)          4 seconds
    (i =   3 of   9)          6 seconds
    (i =   4 of   9)          8 seconds
    (i =   5 of   9)         11 seconds
    (i =   6 of   9)         13 seconds
    (i =   7 of   9)         15 seconds
    (i =   8 of   9)         17 seconds
    (i =   9 of   9)         19 seconds

    Disp202 (T)         =    -0.003670481551 [Eh]

    Disp22 (T)          =    -0.007340876217 [Eh]

    Est. Disp220 (T)    =    -0.003916195184 [Eh]
    Est. Disp202 (T)    =    -0.003916287886 [Eh]

    Est. Disp22 (T)     =    -0.007832483070 [Eh]

    SAPT Results 
  --------------------------------------------------------------------------------------------------------
    Electrostatics               -148.00881212 [mEh]     -92.87693181 [kcal/mol]    -388.59708269 [kJ/mol]
      Elst10,r                   -146.91149579 [mEh]     -92.18835542 [kcal/mol]    -385.71607907 [kJ/mol]
      Elst12,r                     -1.09731633 [mEh]      -0.68857639 [kcal/mol]      -2.88100362 [kJ/mol]

    Exchange                      350.59126265 [mEh]     219.99933873 [kcal/mol]     920.47723326 [kJ/mol]
      Exch10                      325.19731134 [mEh]     204.06439372 [kcal/mol]     853.80542330 [kJ/mol]
      Exch10(S^2)                 301.48732564 [mEh]     189.18615306 [kcal/mol]     791.55486441 [kJ/mol]
      Exch11(S^2)                  -3.31704182 [mEh]      -2.08147517 [kcal/mol]      -8.70889210 [kJ/mol]
      Exch12(S^2)                  28.71099312 [mEh]      18.01642019 [kcal/mol]      75.38070206 [kJ/mol]

    Induction                    -149.56067780 [mEh]     -93.85074223 [kcal/mol]    -392.67150547 [kJ/mol]
      Ind20,r                    -192.21674143 [mEh]    -120.61782627 [kcal/mol]    -504.66498511 [kJ/mol]
      Ind22                       -29.60539318 [mEh]     -18.57766470 [kcal/mol]     -77.72894909 [kJ/mol]
      Exch-Ind20,r                107.70351279 [mEh]      67.58497463 [kcal/mol]     282.77553387 [kJ/mol]
      Exch-Ind22                   16.58859067 [mEh]      10.40949780 [kcal/mol]      43.55333880 [kJ/mol]
      delta HF,r (2)              -52.03064664 [mEh]     -32.64972370 [kcal/mol]    -136.60644394 [kJ/mol]

    Dispersion                    -41.43209905 [mEh]     -25.99903467 [kcal/mol]    -108.77996108 [kJ/mol]
      Disp20                      -50.32656169 [mEh]     -31.58039424 [kcal/mol]    -132.13236951 [kJ/mol]
      Disp21                        8.13802918 [mEh]       5.10669041 [kcal/mol]      21.36639266 [kJ/mol]
      Disp22 (SDQ)                 -3.69785183 [mEh]      -2.32043705 [kcal/mol]      -9.70870863 [kJ/mol]
      Disp22 (T)                   -7.34087622 [mEh]      -4.60646937 [kcal/mol]     -19.27346785 [kJ/mol]
      Est. Disp22 (T)              -7.83248307 [mEh]      -4.91495733 [kcal/mol]     -20.56418147 [kJ/mol]
      Exch-Disp20                  12.28676836 [mEh]       7.71006355 [kcal/mol]      32.25890588 [kJ/mol]

  Total HF                         41.74194026 [mEh]      26.19346297 [kcal/mol]     109.59344906 [kJ/mol]
  Total SAPT0                       3.70214693 [mEh]       2.32313227 [kcal/mol]       9.71998542 [kJ/mol]
  Total SAPT2                      14.98197939 [mEh]       9.40133400 [kcal/mol]      39.33518147 [kJ/mol]
  Total SAPT2+                     11.58967367 [mEh]       7.27263003 [kcal/mol]      30.42868403 [kJ/mol]

  Special recipe for scaled SAPT0 (see Manual):
    Electrostatics sSAPT0        -146.91149579 [mEh]     -92.18835542 [kcal/mol]    -385.71607907 [kJ/mol]
    Exchange sSAPT0               325.19731134 [mEh]     204.06439372 [kcal/mol]     853.80542330 [kJ/mol]
    Induction sSAPT0             -109.08261208 [mEh]     -68.45037251 [kcal/mol]    -286.39635857 [kJ/mol]
    Dispersion sSAPT0             -34.90702476 [mEh]     -21.90448874 [kcal/mol]     -91.64838088 [kJ/mol]
  Total sSAPT0                     34.29617871 [mEh]      21.52117705 [kcal/mol]      90.04460479 [kJ/mol]
  --------------------------------------------------------------------------------------------------------

*** tstop() called on g2-node38.bme.utexas.edu at Mon Sep  9 15:45:34 2019
Module time:
	user time   =     233.45 seconds =       3.89 minutes
	system time =       7.62 seconds =       0.13 minutes
	total time  =         60 seconds =       1.00 minutes
Total time:
	user time   =     270.62 seconds =       4.51 minutes
	system time =       9.02 seconds =       0.15 minutes
	total time  =         73 seconds =       1.22 minutes

    Psi4 stopped on: Monday, 09 September 2019 03:45PM
    Psi4 wall time for execution: 0:01:12.94

*** Psi4 exiting successfully. Buy a developer a beer!
