
    -----------------------------------------------------------------------
          Psi4: An Open-Source Ab Initio Electronic Structure Package
                               Psi4 1.3.2 release

                         Git: Rev {HEAD} ecbda83 


    R. M. Parrish, L. A. Burns, D. G. A. Smith, A. C. Simmonett,
    A. E. DePrince III, E. G. Hohenstein, U. Bozkaya, A. Yu. Sokolov,
    R. Di Remigio, R. M. Richard, J. F. Gonthier, A. M. James,
    H. R. McAlexander, A. Kumar, M. Saitow, X. Wang, B. P. Pritchard,
    P. Verma, H. F. Schaefer III, K. Patkowski, R. A. King, E. F. Valeev,
    F. A. Evangelista, J. M. Turney, T. D. Crawford, and C. D. Sherrill,
    J. Chem. Theory Comput. 13(7) pp 3185--3197 (2017).
    (doi: 10.1021/acs.jctc.7b00174)


                         Additional Contributions by
    P. Kraus, H. Kruse, M. H. Lechner, M. C. Schieber, R. A. Shaw,
    A. Alenaizan, R. Galvelis, Z. L. Glick, S. Lehtola, and J. P. Misiewicz

    -----------------------------------------------------------------------


    Psi4 started on: Monday, 09 September 2019 02:35PM

    Process ID: 91198
    Host:       g2-node38.bme.utexas.edu
    PSIDATADIR: /home/xy3866/psi4conda/share/psi4
    Memory:     500.0 MiB
    Threads:    4
    
  ==> Input File <==

--------------------------------------------------------------------------
#psi4
#
memory 32 gb

molecule  {
0 1
  C       -1.9521150     0.2323370    -0.0000010
  H       -3.0450720     0.2485030     0.0000010
  O       -1.2823360     1.2482650     0.0000000
  O       -1.5045270    -1.0066940    -0.0000010
  H       -0.5061810    -1.0124010    -0.0000010
--
0 1
  C        1.1197820    -0.1889040     0.0000027
  H        2.2024780    -0.3609300    -0.0000013
  O        0.3303930    -1.1320370    -0.0000003
  N        0.7749490     1.1042480     0.0000007
  H       -0.2104560     1.3555680    -0.0000003
  H        1.4851630     1.8111280    -0.0000013
units angstrom
no_reorient  #important for SAPT in psi4, default
symmetry c1  #important for SAPT in psi4, default
}

set {
basis aug-cc-pVDZ
scf_type DF
freeze_core True
}
energy('sapt2+')
--------------------------------------------------------------------------

  Memory set to  29.802 GiB by Python driver.

  //>>>>>>>>>>>>>>>>>>>>>>>>>>>>>>>>>>>//
  //              Dimer HF             //
  //<<<<<<<<<<<<<<<<<<<<<<<<<<<<<<<<<<<//


*** tstart() called on g2-node38.bme.utexas.edu
*** at Mon Sep  9 14:35:10 2019

   => Loading Basis Set <=

    Name: AUG-CC-PVDZ
    Role: ORBITAL
    Keyword: BASIS
    atoms 1, 6           entry C          line   178 file /home/xy3866/psi4conda/share/psi4/basis/aug-cc-pvdz.gbs 
    atoms 2, 5, 7, 10-11 entry H          line    36 file /home/xy3866/psi4conda/share/psi4/basis/aug-cc-pvdz.gbs 
    atoms 3-4, 8         entry O          line   250 file /home/xy3866/psi4conda/share/psi4/basis/aug-cc-pvdz.gbs 
    atoms 9              entry N          line   214 file /home/xy3866/psi4conda/share/psi4/basis/aug-cc-pvdz.gbs 


         ---------------------------------------------------------
                                   SCF
               by Justin Turney, Rob Parrish, Andy Simmonett
                          and Daniel G. A. Smith
                              RHF Reference
                        4 Threads,  30517 MiB Core
         ---------------------------------------------------------

  ==> Geometry <==

    Molecular point group: c1
    Full point group: C1

    Geometry (in Angstrom), charge = 0, multiplicity = 1:

       Center              X                  Y                   Z               Mass       
    ------------   -----------------  -----------------  -----------------  -----------------
         C           -1.529141295466     0.190602318176    -0.000001071254    12.000000000000
         H           -2.622098295466     0.206768318176     0.000000928746     1.007825032230
         O           -0.859362295466     1.206530318176    -0.000000071254    15.994914619570
         O           -1.081553295466    -1.048428681824    -0.000001071254    15.994914619570
         H           -0.083207295466    -1.054135681824    -0.000001071254     1.007825032230
         C            1.542755704534    -0.230638681824     0.000002628746    12.000000000000
         H            2.625451704534    -0.402664681824    -0.000001371254     1.007825032230
         O            0.753366704534    -1.173771681824    -0.000000371254    15.994914619570
         N            1.197922704534     1.062513318176     0.000000628746    14.003074004430
         H            0.212517704534     1.313833318176    -0.000000371254     1.007825032230
         H            1.908136704534     1.769393318176    -0.000001371254     1.007825032230

  Running in c1 symmetry.

  Rotational constants: A =      0.19601  B =      0.12588  C =      0.07665 [cm^-1]
  Rotational constants: A =   5876.24421  B =   3773.83118  C =   2298.00833 [MHz]
  Nuclear repulsion =  262.639238565437722

  Charge       = 0
  Multiplicity = 1
  Electrons    = 48
  Nalpha       = 24
  Nbeta        = 24

  ==> Algorithm <==

  SCF Algorithm Type is DF.
  DIIS enabled.
  MOM disabled.
  Fractional occupation disabled.
  Guess Type is SAD.
  Energy threshold   = 1.00e-08
  Density threshold  = 1.00e-08
  Integral threshold = 0.00e+00

  ==> Primary Basis <==

  Basis Set: AUG-CC-PVDZ
    Blend: AUG-CC-PVDZ
    Number of shells: 79
    Number of basis function: 183
    Number of Cartesian functions: 195
    Spherical Harmonics?: true
    Max angular momentum: 2

   => Loading Basis Set <=

    Name: (AUG-CC-PVDZ AUX)
    Role: JKFIT
    Keyword: DF_BASIS_SCF
    atoms 1, 6           entry C          line   154 file /home/xy3866/psi4conda/share/psi4/basis/aug-cc-pvdz-jkfit.gbs 
    atoms 2, 5, 7, 10-11 entry H          line    70 file /home/xy3866/psi4conda/share/psi4/basis/aug-cc-pvdz-jkfit.gbs 
    atoms 3-4, 8         entry O          line   270 file /home/xy3866/psi4conda/share/psi4/basis/aug-cc-pvdz-jkfit.gbs 
    atoms 9              entry N          line   212 file /home/xy3866/psi4conda/share/psi4/basis/aug-cc-pvdz-jkfit.gbs 

  ==> Pre-Iterations <==

   -------------------------------------------------------
    Irrep   Nso     Nmo     Nalpha   Nbeta   Ndocc  Nsocc
   -------------------------------------------------------
     A        183     183       0       0       0       0
   -------------------------------------------------------
    Total     183     183      24      24      24       0
   -------------------------------------------------------

  ==> Integral Setup <==

  ==> DiskDFJK: Density-Fitted J/K Matrices <==

    J tasked:                  Yes
    K tasked:                  Yes
    wK tasked:                  No
    OpenMP threads:              4
    Integrals threads:           4
    Memory [MiB]:            22888
    Algorithm:                Core
    Integral Cache:           SAVE
    Schwarz Cutoff:          1E-12
    Fitting Condition:       1E-10

   => Auxiliary Basis Set <=

  Basis Set: (AUG-CC-PVDZ AUX)
    Blend: AUG-CC-PVDZ-JKFIT
    Number of shells: 228
    Number of basis function: 676
    Number of Cartesian functions: 781
    Spherical Harmonics?: true
    Max angular momentum: 3

  Minimum eigenvalue in the overlap matrix is 1.4500714030E-04.
  Using Symmetric Orthogonalization.

  SCF Guess: Superposition of Atomic Densities via on-the-fly atomic UHF.

  ==> Iterations <==

                           Total Energy        Delta E     RMS |[F,P]|

   @DF-RHF iter SAD:  -357.54603719513847   -3.57546e+02   0.00000e+00 
   @DF-RHF iter   1:  -357.29131403253825    2.54723e-01   4.16888e-03 DIIS
   @DF-RHF iter   2:  -357.44341963941713   -1.52106e-01   2.59303e-03 DIIS
   @DF-RHF iter   3:  -357.52425765896271   -8.08380e-02   3.09827e-04 DIIS
   @DF-RHF iter   4:  -357.52610821294434   -1.85055e-03   1.12222e-04 DIIS
   @DF-RHF iter   5:  -357.52632821937073   -2.20006e-04   3.32778e-05 DIIS
   @DF-RHF iter   6:  -357.52635158332043   -2.33639e-05   1.06983e-05 DIIS
   @DF-RHF iter   7:  -357.52635531908430   -3.73576e-06   3.61809e-06 DIIS
   @DF-RHF iter   8:  -357.52635575993077   -4.40846e-07   1.40025e-06 DIIS
   @DF-RHF iter   9:  -357.52635586604407   -1.06113e-07   6.01325e-07 DIIS
   @DF-RHF iter  10:  -357.52635588319208   -1.71480e-08   1.76842e-07 DIIS
   @DF-RHF iter  11:  -357.52635588505080   -1.85872e-09   7.04150e-08 DIIS
   @DF-RHF iter  12:  -357.52635588526812   -2.17312e-10   2.53320e-08 DIIS
   @DF-RHF iter  13:  -357.52635588528835   -2.02363e-11   9.48342e-09 DIIS
  Energy and wave function converged.


  ==> Post-Iterations <==

    Orbital Energies [Eh]
    ---------------------

    Doubly Occupied:                                                      

       1A    -20.564096     2A    -20.558175     3A    -20.516925  
       4A    -15.563528     5A    -11.396932     6A    -11.392047  
       7A     -1.540645     8A     -1.456934     9A     -1.353008  
      10A     -1.226820    11A     -1.005318    12A     -0.890011  
      13A     -0.813584    14A     -0.766955    15A     -0.708620  
      16A     -0.662545    17A     -0.644567    18A     -0.594944  
      19A     -0.590616    20A     -0.579439    21A     -0.479879  
      22A     -0.458454    23A     -0.416562    24A     -0.405522  

    Virtual:                                                              

      25A      0.028088    26A      0.045151    27A      0.050713  
      28A      0.069580    29A      0.081857    30A      0.083239  
      31A      0.102639    32A      0.114042    33A      0.132904  
      34A      0.135104    35A      0.147247    36A      0.151226  
      37A      0.171867    38A      0.172044    39A      0.185226  
      40A      0.186947    41A      0.200806    42A      0.221255  
      43A      0.255333    44A      0.257177    45A      0.266345  
      46A      0.268015    47A      0.288547    48A      0.291855  
      49A      0.317756    50A      0.329655    51A      0.332340  
      52A      0.341379    53A      0.355817    54A      0.364024  
      55A      0.371067    56A      0.384672    57A      0.399379  
      58A      0.425616    59A      0.435447    60A      0.436891  
      61A      0.456975    62A      0.463005    63A      0.485675  
      64A      0.517977    65A      0.519917    66A      0.538462  
      67A      0.569379    68A      0.571740    69A      0.591898  
      70A      0.612477    71A      0.626627    72A      0.646102  
      73A      0.651798    74A      0.655638    75A      0.669567  
      76A      0.682829    77A      0.692642    78A      0.716989  
      79A      0.718760    80A      0.734827    81A      0.739501  
      82A      0.763295    83A      0.779490    84A      0.795405  
      85A      0.805011    86A      0.820452    87A      0.834127  
      88A      0.866158    89A      0.868683    90A      0.932967  
      91A      0.976936    92A      0.983583    93A      0.987881  
      94A      0.998046    95A      1.011739    96A      1.022070  
      97A      1.042840    98A      1.046735    99A      1.087528  
     100A      1.116680   101A      1.148601   102A      1.190349  
     103A      1.219543   104A      1.229252   105A      1.238917  
     106A      1.312631   107A      1.330151   108A      1.357028  
     109A      1.387133   110A      1.420006   111A      1.430563  
     112A      1.472736   113A      1.485128   114A      1.519939  
     115A      1.544865   116A      1.569118   117A      1.575900  
     118A      1.621765   119A      1.687532   120A      1.700021  
     121A      1.732022   122A      1.748524   123A      1.791332  
     124A      1.805603   125A      1.806911   126A      1.830219  
     127A      1.847279   128A      1.917306   129A      1.934986  
     130A      1.968736   131A      2.019757   132A      2.028361  
     133A      2.044894   134A      2.068703   135A      2.086352  
     136A      2.119290   137A      2.215555   138A      2.228398  
     139A      2.247031   140A      2.326222   141A      2.329540  
     142A      2.351614   143A      2.379017   144A      2.388943  
     145A      2.425192   146A      2.497979   147A      2.536019  
     148A      2.576625   149A      2.625856   150A      2.658450  
     151A      2.673311   152A      2.765123   153A      2.809218  
     154A      2.837420   155A      2.908261   156A      2.949473  
     157A      2.964536   158A      3.033219   159A      3.113416  
     160A      3.155938   161A      3.223636   162A      3.272188  
     163A      3.342047   164A      3.472085   165A      3.496785  
     166A      3.610066   167A      3.712510   168A      3.723662  
     169A      3.729952   170A      3.754715   171A      3.774960  
     172A      3.788377   173A      3.818443   174A      3.903329  
     175A      3.930933   176A      4.007312   177A      4.019100  
     178A      4.168019   179A      4.199893   180A      4.404194  
     181A      4.693331   182A      4.756750   183A      5.086785  

    Final Occupation by Irrep:
              A 
    DOCC [    24 ]

  @DF-RHF Final Energy:  -357.52635588528835

   => Energetics <=

    Nuclear Repulsion Energy =            262.6392385654377222
    One-Electron Energy =               -1011.1589374698558004
    Two-Electron Energy =                 390.9933430191297248
    Total Energy =                       -357.5263558852883534

Computation Completed


Properties will be evaluated at   0.000000,   0.000000,   0.000000 [a0]

Properties computed using the SCF density matrix

  Nuclear Dipole Moment: [e a0]
     X:     1.9040      Y:     1.7106      Z:    -0.0000

  Electronic Dipole Moment: [e a0]
     X:    -0.9080      Y:    -0.9124      Z:     0.0000

  Dipole Moment: [e a0]
     X:     0.9960      Y:     0.7982      Z:    -0.0000     Total:     1.2764

  Dipole Moment: [D]
     X:     2.5317      Y:     2.0289      Z:    -0.0000     Total:     3.2443


*** tstop() called on g2-node38.bme.utexas.edu at Mon Sep  9 14:35:16 2019
Module time:
	user time   =      19.31 seconds =       0.32 minutes
	system time =       0.51 seconds =       0.01 minutes
	total time  =          6 seconds =       0.10 minutes
Total time:
	user time   =      19.31 seconds =       0.32 minutes
	system time =       0.51 seconds =       0.01 minutes
	total time  =          6 seconds =       0.10 minutes

  //>>>>>>>>>>>>>>>>>>>>>>>>>>>>>>>>>>>//
  //            Monomer A HF           //
  //<<<<<<<<<<<<<<<<<<<<<<<<<<<<<<<<<<<//


*** tstart() called on g2-node38.bme.utexas.edu
*** at Mon Sep  9 14:35:16 2019

   => Loading Basis Set <=

    Name: AUG-CC-PVDZ
    Role: ORBITAL
    Keyword: BASIS
    atoms 1, 6           entry C          line   178 file /home/xy3866/psi4conda/share/psi4/basis/aug-cc-pvdz.gbs 
    atoms 2, 5, 7, 10-11 entry H          line    36 file /home/xy3866/psi4conda/share/psi4/basis/aug-cc-pvdz.gbs 
    atoms 3-4, 8         entry O          line   250 file /home/xy3866/psi4conda/share/psi4/basis/aug-cc-pvdz.gbs 
    atoms 9              entry N          line   214 file /home/xy3866/psi4conda/share/psi4/basis/aug-cc-pvdz.gbs 


         ---------------------------------------------------------
                                   SCF
               by Justin Turney, Rob Parrish, Andy Simmonett
                          and Daniel G. A. Smith
                              RHF Reference
                        4 Threads,  30517 MiB Core
         ---------------------------------------------------------

  ==> Geometry <==

    Molecular point group: c1
    Full point group: C1

    Geometry (in Angstrom), charge = 0, multiplicity = 1:

       Center              X                  Y                   Z               Mass       
    ------------   -----------------  -----------------  -----------------  -----------------
         C           -1.529141295466     0.190602318176    -0.000001071254    12.000000000000
         H           -2.622098295466     0.206768318176     0.000000928746     1.007825032230
         O           -0.859362295466     1.206530318176    -0.000000071254    15.994914619570
         O           -1.081553295466    -1.048428681824    -0.000001071254    15.994914619570
         H           -0.083207295466    -1.054135681824    -0.000001071254     1.007825032230
      Gh(C)           1.542755704534    -0.230638681824     0.000002628746    12.000000000000
      Gh(H)           2.625451704534    -0.402664681824    -0.000001371254     1.007825032230
      Gh(O)           0.753366704534    -1.173771681824    -0.000000371254    15.994914619570
      Gh(N)           1.197922704534     1.062513318176     0.000000628746    14.003074004430
      Gh(H)           0.212517704534     1.313833318176    -0.000000371254     1.007825032230
      Gh(H)           1.908136704534     1.769393318176    -0.000001371254     1.007825032230

  Running in c1 symmetry.

  Rotational constants: A =      0.19601  B =      0.12588  C =      0.07665 [cm^-1]
  Rotational constants: A =   5876.24421  B =   3773.83118  C =   2298.00833 [MHz]
  Nuclear repulsion =   70.088027451303887

  Charge       = 0
  Multiplicity = 1
  Electrons    = 24
  Nalpha       = 12
  Nbeta        = 12

  ==> Algorithm <==

  SCF Algorithm Type is DF.
  DIIS enabled.
  MOM disabled.
  Fractional occupation disabled.
  Guess Type is SAD.
  Energy threshold   = 1.00e-08
  Density threshold  = 1.00e-08
  Integral threshold = 0.00e+00

  ==> Primary Basis <==

  Basis Set: AUG-CC-PVDZ
    Blend: AUG-CC-PVDZ
    Number of shells: 79
    Number of basis function: 183
    Number of Cartesian functions: 195
    Spherical Harmonics?: true
    Max angular momentum: 2

   => Loading Basis Set <=

    Name: (AUG-CC-PVDZ AUX)
    Role: JKFIT
    Keyword: DF_BASIS_SCF
    atoms 1, 6           entry C          line   154 file /home/xy3866/psi4conda/share/psi4/basis/aug-cc-pvdz-jkfit.gbs 
    atoms 2, 5, 7, 10-11 entry H          line    70 file /home/xy3866/psi4conda/share/psi4/basis/aug-cc-pvdz-jkfit.gbs 
    atoms 3-4, 8         entry O          line   270 file /home/xy3866/psi4conda/share/psi4/basis/aug-cc-pvdz-jkfit.gbs 
    atoms 9              entry N          line   212 file /home/xy3866/psi4conda/share/psi4/basis/aug-cc-pvdz-jkfit.gbs 

  ==> Pre-Iterations <==

   -------------------------------------------------------
    Irrep   Nso     Nmo     Nalpha   Nbeta   Ndocc  Nsocc
   -------------------------------------------------------
     A        183     183       0       0       0       0
   -------------------------------------------------------
    Total     183     183      12      12      12       0
   -------------------------------------------------------

  ==> Integral Setup <==

  ==> DiskDFJK: Density-Fitted J/K Matrices <==

    J tasked:                  Yes
    K tasked:                  Yes
    wK tasked:                  No
    OpenMP threads:              4
    Integrals threads:           4
    Memory [MiB]:            22888
    Algorithm:                Core
    Integral Cache:           LOAD
    Schwarz Cutoff:          1E-12
    Fitting Condition:       1E-10

   => Auxiliary Basis Set <=

  Basis Set: (AUG-CC-PVDZ AUX)
    Blend: AUG-CC-PVDZ-JKFIT
    Number of shells: 228
    Number of basis function: 676
    Number of Cartesian functions: 781
    Spherical Harmonics?: true
    Max angular momentum: 3

  Minimum eigenvalue in the overlap matrix is 1.4500714030E-04.
  Using Symmetric Orthogonalization.

  SCF Guess: Superposition of Atomic Densities via on-the-fly atomic UHF.

  ==> Iterations <==

                           Total Energy        Delta E     RMS |[F,P]|

   @DF-RHF iter SAD:  -187.95999800117133   -1.87960e+02   0.00000e+00 
   @DF-RHF iter   1:  -188.68863635095587   -7.28638e-01   2.77227e-03 DIIS
   @DF-RHF iter   2:  -188.75191104964131   -6.32747e-02   1.91729e-03 DIIS
   @DF-RHF iter   3:  -188.79450991093265   -4.25989e-02   2.36262e-04 DIIS
   @DF-RHF iter   4:  -188.79563455599296   -1.12465e-03   1.20588e-04 DIIS
   @DF-RHF iter   5:  -188.79590821661390   -2.73661e-04   2.86515e-05 DIIS
   @DF-RHF iter   6:  -188.79594648326608   -3.82667e-05   1.25480e-05 DIIS
   @DF-RHF iter   7:  -188.79595520357935   -8.72031e-06   4.30654e-06 DIIS
   @DF-RHF iter   8:  -188.79595609020583   -8.86626e-07   1.34996e-06 DIIS
   @DF-RHF iter   9:  -188.79595617614640   -8.59406e-08   3.66612e-07 DIIS
   @DF-RHF iter  10:  -188.79595618231721   -6.17081e-09   7.61373e-08 DIIS
   @DF-RHF iter  11:  -188.79595618255911   -2.41897e-10   1.26450e-08 DIIS
   @DF-RHF iter  12:  -188.79595618256576   -6.65068e-12   2.61699e-09 DIIS
  Energy and wave function converged.


  ==> Post-Iterations <==

    Orbital Energies [Eh]
    ---------------------

    Doubly Occupied:                                                      

       1A    -20.646232     2A    -20.572924     3A    -11.406378  
       4A     -1.484404     5A     -1.374727     6A     -0.903195  
       7A     -0.731476     8A     -0.712549     9A     -0.642740  
      10A     -0.596698    11A     -0.490719    12A     -0.469887  

    Virtual:                                                              

      13A      0.026052    14A      0.039678    15A      0.053154  
      16A      0.065325    17A      0.078171    18A      0.085199  
      19A      0.097624    20A      0.102107    21A      0.110533  
      22A      0.129959    23A      0.149073    24A      0.160638  
      25A      0.161306    26A      0.168105    27A      0.175645  
      28A      0.188450    29A      0.200597    30A      0.220191  
      31A      0.236966    32A      0.242312    33A      0.255130  
      34A      0.258951    35A      0.275185    36A      0.295232  
      37A      0.303577    38A      0.312275    39A      0.318710  
      40A      0.340957    41A      0.362561    42A      0.382208  
      43A      0.389668    44A      0.403733    45A      0.409666  
      46A      0.424632    47A      0.441405    48A      0.458259  
      49A      0.462671    50A      0.468453    51A      0.498576  
      52A      0.504461    53A      0.507424    54A      0.515390  
      55A      0.539133    56A      0.575578    57A      0.595444  
      58A      0.598137    59A      0.606341    60A      0.611436  
      61A      0.632740    62A      0.651820    63A      0.676937  
      64A      0.686033    65A      0.688962    66A      0.700867  
      67A      0.700923    68A      0.732681    69A      0.747396  
      70A      0.762973    71A      0.802679    72A      0.817073  
      73A      0.833550    74A      0.851519    75A      0.875517  
      76A      0.910956    77A      0.920750    78A      0.960672  
      79A      0.970132    80A      1.006043    81A      1.032221  
      82A      1.040667    83A      1.044730    84A      1.072973  
      85A      1.085500    86A      1.106198    87A      1.160441  
      88A      1.163169    89A      1.186444    90A      1.202784  
      91A      1.210751    92A      1.227810    93A      1.244617  
      94A      1.282852    95A      1.334535    96A      1.359198  
      97A      1.360768    98A      1.390718    99A      1.416304  
     100A      1.429961   101A      1.470497   102A      1.490885  
     103A      1.510333   104A      1.541259   105A      1.543796  
     106A      1.619572   107A      1.644721   108A      1.664292  
     109A      1.710970   110A      1.730234   111A      1.755069  
     112A      1.785331   113A      1.833700   114A      1.883408  
     115A      1.921815   116A      2.035092   117A      2.077423  
     118A      2.107229   119A      2.113955   120A      2.205990  
     121A      2.224209   122A      2.257200   123A      2.321378  
     124A      2.344481   125A      2.399272   126A      2.419531  
     127A      2.454143   128A      2.474027   129A      2.515684  
     130A      2.582060   131A      2.643646   132A      2.667480  
     133A      2.679824   134A      2.745600   135A      2.850393  
     136A      2.875256   137A      2.899889   138A      2.921603  
     139A      3.009892   140A      3.109383   141A      3.153468  
     142A      3.197004   143A      3.235274   144A      3.250603  
     145A      3.263238   146A      3.310504   147A      3.438961  
     148A      3.465808   149A      3.604866   150A      3.673632  
     151A      3.679112   152A      3.724018   153A      3.759307  
     154A      3.774671   155A      3.777907   156A      3.813269  
     157A      3.884290   158A      3.919628   159A      3.925609  
     160A      3.927341   161A      4.125794   162A      4.156655  
     163A      4.257890   164A      4.401258   165A      4.574677  
     166A      4.628593   167A      4.664791   168A      4.851459  
     169A      4.872229   170A      4.951204   171A      5.084852  
     172A      5.139209   173A      5.311410   174A      5.535745  
     175A      5.847599   176A      6.107166   177A      6.247638  
     178A      6.697558   179A      6.897394   180A      8.702703  
     181A     18.698520   182A     25.573198   183A     33.484771  

    Final Occupation by Irrep:
              A 
    DOCC [    12 ]

  @DF-RHF Final Energy:  -188.79595618256576

   => Energetics <=

    Nuclear Repulsion Energy =             70.0880274513038870
    One-Electron Energy =                -397.7041097308688791
    Two-Electron Energy =                 138.8201260969992177
    Total Energy =                       -188.7959561825657602

Computation Completed


Properties will be evaluated at   0.000000,   0.000000,   0.000000 [a0]

Properties computed using the SCF density matrix

  Nuclear Dipole Moment: [e a0]
     X:   -51.7926      Y:     2.9500      Z:    -0.0000

  Electronic Dipole Moment: [e a0]
     X:    51.6559      Y:    -3.7505      Z:     0.0000

  Dipole Moment: [e a0]
     X:    -0.1367      Y:    -0.8005      Z:    -0.0000     Total:     0.8121

  Dipole Moment: [D]
     X:    -0.3475      Y:    -2.0346      Z:    -0.0000     Total:     2.0641


*** tstop() called on g2-node38.bme.utexas.edu at Mon Sep  9 14:35:19 2019
Module time:
	user time   =       9.97 seconds =       0.17 minutes
	system time =       0.32 seconds =       0.01 minutes
	total time  =          3 seconds =       0.05 minutes
Total time:
	user time   =      29.31 seconds =       0.49 minutes
	system time =       0.83 seconds =       0.01 minutes
	total time  =          9 seconds =       0.15 minutes

  //>>>>>>>>>>>>>>>>>>>>>>>>>>>>>>>>>>>//
  //            Monomer B HF           //
  //<<<<<<<<<<<<<<<<<<<<<<<<<<<<<<<<<<<//


*** tstart() called on g2-node38.bme.utexas.edu
*** at Mon Sep  9 14:35:19 2019

   => Loading Basis Set <=

    Name: AUG-CC-PVDZ
    Role: ORBITAL
    Keyword: BASIS
    atoms 1, 6           entry C          line   178 file /home/xy3866/psi4conda/share/psi4/basis/aug-cc-pvdz.gbs 
    atoms 2, 5, 7, 10-11 entry H          line    36 file /home/xy3866/psi4conda/share/psi4/basis/aug-cc-pvdz.gbs 
    atoms 3-4, 8         entry O          line   250 file /home/xy3866/psi4conda/share/psi4/basis/aug-cc-pvdz.gbs 
    atoms 9              entry N          line   214 file /home/xy3866/psi4conda/share/psi4/basis/aug-cc-pvdz.gbs 


         ---------------------------------------------------------
                                   SCF
               by Justin Turney, Rob Parrish, Andy Simmonett
                          and Daniel G. A. Smith
                              RHF Reference
                        4 Threads,  30517 MiB Core
         ---------------------------------------------------------

  ==> Geometry <==

    Molecular point group: c1
    Full point group: C1

    Geometry (in Angstrom), charge = 0, multiplicity = 1:

       Center              X                  Y                   Z               Mass       
    ------------   -----------------  -----------------  -----------------  -----------------
      Gh(C)          -1.529141295466     0.190602318176    -0.000001071254    12.000000000000
      Gh(H)          -2.622098295466     0.206768318176     0.000000928746     1.007825032230
      Gh(O)          -0.859362295466     1.206530318176    -0.000000071254    15.994914619570
      Gh(O)          -1.081553295466    -1.048428681824    -0.000001071254    15.994914619570
      Gh(H)          -0.083207295466    -1.054135681824    -0.000001071254     1.007825032230
         C            1.542755704534    -0.230638681824     0.000002628746    12.000000000000
         H            2.625451704534    -0.402664681824    -0.000001371254     1.007825032230
         O            0.753366704534    -1.173771681824    -0.000000371254    15.994914619570
         N            1.197922704534     1.062513318176     0.000000628746    14.003074004430
         H            0.212517704534     1.313833318176    -0.000000371254     1.007825032230
         H            1.908136704534     1.769393318176    -0.000001371254     1.007825032230

  Running in c1 symmetry.

  Rotational constants: A =      0.19601  B =      0.12588  C =      0.07665 [cm^-1]
  Rotational constants: A =   5876.24421  B =   3773.83118  C =   2298.00833 [MHz]
  Nuclear repulsion =   71.226316789148896

  Charge       = 0
  Multiplicity = 1
  Electrons    = 24
  Nalpha       = 12
  Nbeta        = 12

  ==> Algorithm <==

  SCF Algorithm Type is DF.
  DIIS enabled.
  MOM disabled.
  Fractional occupation disabled.
  Guess Type is SAD.
  Energy threshold   = 1.00e-08
  Density threshold  = 1.00e-08
  Integral threshold = 0.00e+00

  ==> Primary Basis <==

  Basis Set: AUG-CC-PVDZ
    Blend: AUG-CC-PVDZ
    Number of shells: 79
    Number of basis function: 183
    Number of Cartesian functions: 195
    Spherical Harmonics?: true
    Max angular momentum: 2

   => Loading Basis Set <=

    Name: (AUG-CC-PVDZ AUX)
    Role: JKFIT
    Keyword: DF_BASIS_SCF
    atoms 1, 6           entry C          line   154 file /home/xy3866/psi4conda/share/psi4/basis/aug-cc-pvdz-jkfit.gbs 
    atoms 2, 5, 7, 10-11 entry H          line    70 file /home/xy3866/psi4conda/share/psi4/basis/aug-cc-pvdz-jkfit.gbs 
    atoms 3-4, 8         entry O          line   270 file /home/xy3866/psi4conda/share/psi4/basis/aug-cc-pvdz-jkfit.gbs 
    atoms 9              entry N          line   212 file /home/xy3866/psi4conda/share/psi4/basis/aug-cc-pvdz-jkfit.gbs 

  ==> Pre-Iterations <==

   -------------------------------------------------------
    Irrep   Nso     Nmo     Nalpha   Nbeta   Ndocc  Nsocc
   -------------------------------------------------------
     A        183     183       0       0       0       0
   -------------------------------------------------------
    Total     183     183      12      12      12       0
   -------------------------------------------------------

  ==> Integral Setup <==

  ==> DiskDFJK: Density-Fitted J/K Matrices <==

    J tasked:                  Yes
    K tasked:                  Yes
    wK tasked:                  No
    OpenMP threads:              4
    Integrals threads:           4
    Memory [MiB]:            22888
    Algorithm:                Core
    Integral Cache:           LOAD
    Schwarz Cutoff:          1E-12
    Fitting Condition:       1E-10

   => Auxiliary Basis Set <=

  Basis Set: (AUG-CC-PVDZ AUX)
    Blend: AUG-CC-PVDZ-JKFIT
    Number of shells: 228
    Number of basis function: 676
    Number of Cartesian functions: 781
    Spherical Harmonics?: true
    Max angular momentum: 3

  Minimum eigenvalue in the overlap matrix is 1.4500714030E-04.
  Using Symmetric Orthogonalization.

  SCF Guess: Superposition of Atomic Densities via on-the-fly atomic UHF.

  ==> Iterations <==

                           Total Energy        Delta E     RMS |[F,P]|

   @DF-RHF iter SAD:  -168.17981049705890   -1.68180e+02   0.00000e+00 
   @DF-RHF iter   1:  -168.83954822982952   -6.59738e-01   2.84604e-03 DIIS
   @DF-RHF iter   2:  -168.91812201537289   -7.85738e-02   1.90815e-03 DIIS
   @DF-RHF iter   3:  -168.96155697220044   -4.34350e-02   2.83024e-04 DIIS
   @DF-RHF iter   4:  -168.96301593330335   -1.45896e-03   1.18543e-04 DIIS
   @DF-RHF iter   5:  -168.96330769151726   -2.91758e-04   2.32911e-05 DIIS
   @DF-RHF iter   6:  -168.96333590161200   -2.82101e-05   1.12974e-05 DIIS
   @DF-RHF iter   7:  -168.96334191608213   -6.01447e-06   4.41823e-06 DIIS
   @DF-RHF iter   8:  -168.96334289364120   -9.77559e-07   1.33506e-06 DIIS
   @DF-RHF iter   9:  -168.96334298192102   -8.82798e-08   3.52024e-07 DIIS
   @DF-RHF iter  10:  -168.96334298820548   -6.28447e-09   8.03148e-08 DIIS
   @DF-RHF iter  11:  -168.96334298848510   -2.79613e-10   1.40900e-08 DIIS
   @DF-RHF iter  12:  -168.96334298849274   -7.64544e-12   2.63965e-09 DIIS
  Energy and wave function converged.


  ==> Post-Iterations <==

    Orbital Energies [Eh]
    ---------------------

    Doubly Occupied:                                                      

       1A    -20.536425     2A    -15.609546     3A    -11.365277  
       4A     -1.380292     5A     -1.230974     6A     -0.856624  
       7A     -0.759820     8A     -0.678236     9A     -0.603319  
      10A     -0.571579    11A     -0.433991    12A     -0.420363  

    Virtual:                                                              

      13A      0.024123    14A      0.036587    15A      0.049076  
      16A      0.067074    17A      0.079287    18A      0.086778  
      19A      0.102833    20A      0.111147    21A      0.122622  
      22A      0.133987    23A      0.150013    24A      0.156081  
      25A      0.164893    26A      0.169993    27A      0.178376  
      28A      0.188998    29A      0.200378    30A      0.230560  
      31A      0.237555    32A      0.240100    33A      0.252492  
      34A      0.264073    35A      0.280339    36A      0.300540  
      37A      0.315378    38A      0.318089    39A      0.332389  
      40A      0.337909    41A      0.356971    42A      0.367142  
      43A      0.372220    44A      0.387950    45A      0.398765  
      46A      0.434582    47A      0.439687    48A      0.459654  
      49A      0.460396    50A      0.465945    51A      0.493038  
      52A      0.510597    53A      0.527059    54A      0.530021  
      55A      0.562017    56A      0.582928    57A      0.608410  
      58A      0.615488    59A      0.627722    60A      0.632912  
      61A      0.641525    62A      0.644223    63A      0.670111  
      64A      0.694210    65A      0.696774    66A      0.711881  
      67A      0.716129    68A      0.721464    69A      0.728087  
      70A      0.758548    71A      0.789351    72A      0.817227  
      73A      0.821012    74A      0.825251    75A      0.848297  
      76A      0.859823    77A      0.928619    78A      0.947831  
      79A      0.978818    80A      0.982638    81A      0.986812  
      82A      1.018416    83A      1.023241    84A      1.052022  
      85A      1.076721    86A      1.113736    87A      1.150311  
      88A      1.167051    89A      1.236117    90A      1.238752  
      91A      1.252143    92A      1.276735    93A      1.287089  
      94A      1.393064    95A      1.400127    96A      1.400968  
      97A      1.434862    98A      1.437201    99A      1.448704  
     100A      1.483547   101A      1.496996   102A      1.511769  
     103A      1.535359   104A      1.552720   105A      1.586737  
     106A      1.617537   107A      1.632876   108A      1.657751  
     109A      1.689342   110A      1.715713   111A      1.743190  
     112A      1.771751   113A      1.823768   114A      1.868543  
     115A      1.962941   116A      1.993408   117A      2.010617  
     118A      2.047396   119A      2.093417   120A      2.100268  
     121A      2.126979   122A      2.204613   123A      2.239934  
     124A      2.256650   125A      2.280241   126A      2.344195  
     127A      2.348319   128A      2.380537   129A      2.448468  
     130A      2.461580   131A      2.491857   132A      2.512614  
     133A      2.583346   134A      2.695364   135A      2.698078  
     136A      2.779510   137A      2.782292   138A      2.809772  
     139A      2.899183   140A      2.956842   141A      2.971435  
     142A      3.047516   143A      3.085092   144A      3.128634  
     145A      3.214231   146A      3.283748   147A      3.297262  
     148A      3.362926   149A      3.411734   150A      3.522067  
     151A      3.611463   152A      3.669370   153A      3.726643  
     154A      3.805186   155A      3.876127   156A      3.996347  
     157A      4.027507   158A      4.138841   159A      4.161733  
     160A      4.378860   161A      4.487588   162A      4.739398  
     163A      4.910278   164A      4.980036   165A      5.032997  
     166A      5.035540   167A      5.053440   168A      5.100445  
     169A      5.206591   170A      5.307838   171A      5.525761  
     172A      5.749020   173A      5.867694   174A      5.967129  
     175A      5.981419   176A      6.121685   177A      6.637487  
     178A      6.839483   179A      7.258063   180A      7.998371  
     181A     18.707383   182A     33.535359   183A     33.726725  

    Final Occupation by Irrep:
              A 
    DOCC [    12 ]

  @DF-RHF Final Energy:  -168.96334298849274

   => Energetics <=

    Nuclear Repulsion Energy =             71.2263167891488962
    One-Electron Energy =                -371.4864292416053217
    Two-Electron Energy =                 131.2967694639636989
    Total Energy =                       -168.9633429884927409

Computation Completed


Properties will be evaluated at   0.000000,   0.000000,   0.000000 [a0]

Properties computed using the SCF density matrix

  Nuclear Dipole Moment: [e a0]
     X:    53.6966      Y:    -1.2394      Z:     0.0000

  Electronic Dipole Moment: [e a0]
     X:   -52.9646      Y:     2.8421      Z:    -0.0000

  Dipole Moment: [e a0]
     X:     0.7321      Y:     1.6027      Z:    -0.0000     Total:     1.7620

  Dipole Moment: [D]
     X:     1.8607      Y:     4.0737      Z:    -0.0000     Total:     4.4786


*** tstop() called on g2-node38.bme.utexas.edu at Mon Sep  9 14:35:23 2019
Module time:
	user time   =      10.86 seconds =       0.18 minutes
	system time =       0.32 seconds =       0.01 minutes
	total time  =          4 seconds =       0.07 minutes
Total time:
	user time   =      40.20 seconds =       0.67 minutes
	system time =       1.16 seconds =       0.02 minutes
	total time  =         13 seconds =       0.22 minutes
  Constructing Basis Sets for SAPT...

   => Loading Basis Set <=

    Name: (AUG-CC-PVDZ AUX)
    Role: RIFIT
    Keyword: DF_BASIS_SAPT
    atoms 1, 6           entry C          line   112 file /home/xy3866/psi4conda/share/psi4/basis/aug-cc-pvdz-ri.gbs 
    atoms 2, 5, 7, 10-11 entry H          line    30 file /home/xy3866/psi4conda/share/psi4/basis/aug-cc-pvdz-ri.gbs 
    atoms 3-4, 8         entry O          line   204 file /home/xy3866/psi4conda/share/psi4/basis/aug-cc-pvdz-ri.gbs 
    atoms 9              entry N          line   158 file /home/xy3866/psi4conda/share/psi4/basis/aug-cc-pvdz-ri.gbs 


  //>>>>>>>>>>>>>>>>>>>>>>>>>>>>>>>>>>>//
  //               SAPT2+              //
  //<<<<<<<<<<<<<<<<<<<<<<<<<<<<<<<<<<<//


*** tstart() called on g2-node38.bme.utexas.edu
*** at Mon Sep  9 14:35:23 2019

        SAPT2+  
    Ed Hohenstein
     6 June 2009

      Orbital Information
  --------------------------
    NSO        =       183
    NMO        =       183
    NRI        =       547
    NOCC A     =        12
    NOCC B     =        12
    FOCC A     =         3
    FOCC B     =         3
    NVIR A     =       171
    NVIR B     =       171

    Estimated memory usage: 229.0 MB

    Natural Orbital Cutoff:   1.000E-06
    Disp(T3) Truncation:            Yes
    CCD (vv|vv) Truncation:         Yes
    MBPT T2 Truncation:             Yes

    Monomer A: 76 virtual orbitals dropped
    Monomer B: 71 virtual orbitals dropped

    Elst10,r            =    -0.209404809974 [Eh]
    Exch10 (S^2)        =     0.612411211183 [Eh]
    Exch10              =     0.716523504740 [Eh]
    Ind20,r (A<-B)      =    -0.252952013833 [Eh]
    Ind20,r (B<-A)      =    -0.221898485370 [Eh]
    Ind20,r             =    -0.474850499203 [Eh]
    Exch-Ind20,r (A<-B) =     0.150231446117 [Eh]
    Exch-Ind20,r (B<-A) =     0.080021577190 [Eh]
    Exch-Ind20,r        =     0.230253023307 [Eh]
    Disp20              =    -0.090418311912 [Eh]
    Disp20 (NO)         =    -0.086176032084 [Eh]
    Exch-Disp20         =     0.018494861309 [Eh]
    Elst12,r            =    -0.001924212094 [Eh]
    Exch11              =    -0.010070545361 [Eh]
    Exch12              =     0.030780410144 [Eh]
    Ind22               =    -0.060285446468 [Eh]
    Disp21              =     0.018571267198 [Eh]
    Disp22 (SDQ)        =    -0.006346153192 [Eh]

    (i =   1 of   9)          3 seconds
    (i =   2 of   9)          6 seconds
    (i =   3 of   9)          9 seconds
    (i =   4 of   9)         12 seconds
    (i =   5 of   9)         15 seconds
    (i =   6 of   9)         18 seconds
    (i =   7 of   9)         20 seconds
    (i =   8 of   9)         24 seconds
    (i =   9 of   9)         27 seconds

    Disp220 (T)         =    -0.006277802009 [Eh]

    (i =   1 of   9)          3 seconds
    (i =   2 of   9)          6 seconds
    (i =   3 of   9)          9 seconds
    (i =   4 of   9)         11 seconds
    (i =   5 of   9)         14 seconds
    (i =   6 of   9)         17 seconds
    (i =   7 of   9)         20 seconds
    (i =   8 of   9)         23 seconds
    (i =   9 of   9)         26 seconds

    Disp202 (T)         =    -0.005582619150 [Eh]

    Disp22 (T)          =    -0.011860421159 [Eh]

    Est. Disp220 (T)    =    -0.006586846092 [Eh]
    Est. Disp202 (T)    =    -0.005857440722 [Eh]

    Est. Disp22 (T)     =    -0.012444286815 [Eh]

    SAPT Results 
  --------------------------------------------------------------------------------------------------------
    Electrostatics               -211.32902207 [mEh]    -132.61096343 [kcal/mol]    -554.84427100 [kJ/mol]
      Elst10,r                   -209.40480997 [mEh]    -131.40350211 [kcal/mol]    -549.79225284 [kJ/mol]
      Elst12,r                     -1.92421209 [mEh]      -1.20746132 [kcal/mol]      -5.05201816 [kJ/mol]

    Exchange                      737.23336952 [mEh]     462.62092376 [kcal/mol]    1935.60594501 [kJ/mol]
      Exch10                      716.52350474 [mEh]     449.62528741 [kcal/mol]    1881.23220252 [kJ/mol]
      Exch10(S^2)                 612.41121118 [mEh]     384.29383687 [kcal/mol]    1607.88541344 [kJ/mol]
      Exch11(S^2)                 -10.07054536 [mEh]      -6.31936262 [kcal/mol]     -26.44021320 [kJ/mol]
      Exch12(S^2)                  30.78041014 [mEh]      19.31499897 [kcal/mol]      80.81395570 [kJ/mol]

    Induction                    -305.22869432 [mEh]    -191.53389736 [kcal/mol]    -801.37782654 [kJ/mol]
      Ind20,r                    -474.85049920 [mEh]    -297.97318688 [kcal/mol]   -1246.71981390 [kJ/mol]
      Ind22                       -60.28544647 [mEh]     -37.82968879 [kcal/mol]    -158.27941789 [kJ/mol]
      Exch-Ind20,r                230.25302331 [mEh]     144.48595349 [kcal/mol]     604.52922941 [kJ/mol]
      Exch-Ind22                   29.23216114 [mEh]      18.34345805 [kcal/mol]      76.74902850 [kJ/mol]
      delta HF,r (2)              -29.57793310 [mEh]     -18.56043323 [kcal/mol]     -77.65685265 [kJ/mol]

    Dispersion                    -72.14262341 [mEh]     -45.27017965 [kcal/mol]    -189.41043167 [kJ/mol]
      Disp20                      -90.41831191 [mEh]     -56.73834733 [kcal/mol]    -237.39324522 [kJ/mol]
      Disp21                       18.57126720 [mEh]      11.65364611 [kcal/mol]      48.75885531 [kJ/mol]
      Disp22 (SDQ)                 -6.34615319 [mEh]      -3.98227125 [kcal/mol]     -16.66182291 [kJ/mol]
      Disp22 (T)                  -11.86042116 [mEh]      -7.44252664 [kcal/mol]     -31.13953146 [kJ/mol]
      Est. Disp22 (T)             -12.44428681 [mEh]      -7.80890787 [kcal/mol]     -32.67247053 [kJ/mol]
      Exch-Disp20                  18.49486131 [mEh]      11.60570069 [kcal/mol]      48.55825168 [kJ/mol]

  Total HF                        232.94328577 [mEh]     146.17411867 [kcal/mol]     611.59251253 [kJ/mol]
  Total SAPT0                     161.01983517 [mEh]     101.04147203 [kcal/mol]     422.75751899 [kJ/mol]
  Total SAPT2                     148.75220253 [mEh]      93.34341633 [kcal/mol]     390.54885393 [kJ/mol]
  Total SAPT2+                    148.53302972 [mEh]      93.20588332 [kcal/mol]     389.97341580 [kJ/mol]

  Special recipe for scaled SAPT0 (see Manual):
    Electrostatics sSAPT0        -209.40480997 [mEh]    -131.40350211 [kcal/mol]    -549.79225284 [kJ/mol]
    Exchange sSAPT0               716.52350474 [mEh]     449.62528741 [kcal/mol]    1881.23220252 [kJ/mol]
    Induction sSAPT0             -135.64851027 [mEh]     -85.12072530 [kcal/mol]    -356.14511464 [kJ/mol]
    Dispersion sSAPT0             -60.79640548 [mEh]     -38.15032041 [kcal/mol]    -159.62094060 [kJ/mol]
  Total sSAPT0                    310.67377902 [mEh]     194.95073959 [kcal/mol]     815.67389443 [kJ/mol]
  --------------------------------------------------------------------------------------------------------

*** tstop() called on g2-node38.bme.utexas.edu at Mon Sep  9 14:36:42 2019
Module time:
	user time   =     304.78 seconds =       5.08 minutes
	system time =       8.78 seconds =       0.15 minutes
	total time  =         79 seconds =       1.32 minutes
Total time:
	user time   =     345.39 seconds =       5.76 minutes
	system time =       9.95 seconds =       0.17 minutes
	total time  =         92 seconds =       1.53 minutes

    Psi4 stopped on: Monday, 09 September 2019 02:36PM
    Psi4 wall time for execution: 0:01:31.85

*** Psi4 exiting successfully. Buy a developer a beer!
