
    -----------------------------------------------------------------------
          Psi4: An Open-Source Ab Initio Electronic Structure Package
                               Psi4 1.3.2 release

                         Git: Rev {HEAD} ecbda83 


    R. M. Parrish, L. A. Burns, D. G. A. Smith, A. C. Simmonett,
    A. E. DePrince III, E. G. Hohenstein, U. Bozkaya, A. Yu. Sokolov,
    R. Di Remigio, R. M. Richard, J. F. Gonthier, A. M. James,
    H. R. McAlexander, A. Kumar, M. Saitow, X. Wang, B. P. Pritchard,
    P. Verma, H. F. Schaefer III, K. Patkowski, R. A. King, E. F. Valeev,
    F. A. Evangelista, J. M. Turney, T. D. Crawford, and C. D. Sherrill,
    J. Chem. Theory Comput. 13(7) pp 3185--3197 (2017).
    (doi: 10.1021/acs.jctc.7b00174)


                         Additional Contributions by
    P. Kraus, H. Kruse, M. H. Lechner, M. C. Schieber, R. A. Shaw,
    A. Alenaizan, R. Galvelis, Z. L. Glick, S. Lehtola, and J. P. Misiewicz

    -----------------------------------------------------------------------


    Psi4 started on: Monday, 09 September 2019 03:33PM

    Process ID: 92747
    Host:       g2-node38.bme.utexas.edu
    PSIDATADIR: /home/xy3866/psi4conda/share/psi4
    Memory:     500.0 MiB
    Threads:    4
    
  ==> Input File <==

--------------------------------------------------------------------------
#psi4
#
memory 32 gb

molecule  {
0 1
  C       -1.9521150     0.2323370    -0.0000010
  H       -3.0450720     0.2485030     0.0000010
  O       -1.2823360     1.2482650     0.0000000
  O       -1.5045270    -1.0066940    -0.0000010
  H       -0.5061810    -1.0124010    -0.0000010
--
0 1
  C        1.6758114    -0.2273840     0.0000029
  H        2.7585074    -0.3994100    -0.0000011
  O        0.8864224    -1.1705170    -0.0000001
  N        1.3309784     1.0657680     0.0000009
  H        0.3455734     1.3170880    -0.0000001
  H        2.0411924     1.7726480    -0.0000011
units angstrom
no_reorient  #important for SAPT in psi4, default
symmetry c1  #important for SAPT in psi4, default
}

set {
basis aug-cc-pVDZ
scf_type DF
freeze_core True
}
energy('sapt2+')
--------------------------------------------------------------------------

  Memory set to  29.802 GiB by Python driver.

  //>>>>>>>>>>>>>>>>>>>>>>>>>>>>>>>>>>>//
  //              Dimer HF             //
  //<<<<<<<<<<<<<<<<<<<<<<<<<<<<<<<<<<<//


*** tstart() called on g2-node38.bme.utexas.edu
*** at Mon Sep  9 15:33:09 2019

   => Loading Basis Set <=

    Name: AUG-CC-PVDZ
    Role: ORBITAL
    Keyword: BASIS
    atoms 1, 6           entry C          line   178 file /home/xy3866/psi4conda/share/psi4/basis/aug-cc-pvdz.gbs 
    atoms 2, 5, 7, 10-11 entry H          line    36 file /home/xy3866/psi4conda/share/psi4/basis/aug-cc-pvdz.gbs 
    atoms 3-4, 8         entry O          line   250 file /home/xy3866/psi4conda/share/psi4/basis/aug-cc-pvdz.gbs 
    atoms 9              entry N          line   214 file /home/xy3866/psi4conda/share/psi4/basis/aug-cc-pvdz.gbs 


         ---------------------------------------------------------
                                   SCF
               by Justin Turney, Rob Parrish, Andy Simmonett
                          and Daniel G. A. Smith
                              RHF Reference
                        4 Threads,  30517 MiB Core
         ---------------------------------------------------------

  ==> Geometry <==

    Molecular point group: c1
    Full point group: C1

    Geometry (in Angstrom), charge = 0, multiplicity = 1:

       Center              X                  Y                   Z               Mass       
    ------------   -----------------  -----------------  -----------------  -----------------
         C           -1.804150612796     0.209634330747    -0.000001170173    12.000000000000
         H           -2.897107612796     0.225800330747     0.000000829827     1.007825032230
         O           -1.134371612796     1.225562330747    -0.000000170173    15.994914619570
         O           -1.356562612796    -1.029396669253    -0.000001170173    15.994914619570
         H           -0.358216612796    -1.035103669253    -0.000001170173     1.007825032230
         C            1.823775787204    -0.250086669253     0.000002729827    12.000000000000
         H            2.906471787204    -0.422112669253    -0.000001270173     1.007825032230
         O            1.034386787204    -1.193219669253    -0.000000270173    15.994914619570
         N            1.478942787204     1.043065330747     0.000000729827    14.003074004430
         H            0.493537787204     1.294385330747    -0.000000270173     1.007825032230
         H            2.189156787204     1.749945330747    -0.000001270173     1.007825032230

  Running in c1 symmetry.

  Rotational constants: A =      0.19575  B =      0.08465  C =      0.05910 [cm^-1]
  Rotational constants: A =   5868.49011  B =   2537.83208  C =   1771.67162 [MHz]
  Nuclear repulsion =  240.779831407180211

  Charge       = 0
  Multiplicity = 1
  Electrons    = 48
  Nalpha       = 24
  Nbeta        = 24

  ==> Algorithm <==

  SCF Algorithm Type is DF.
  DIIS enabled.
  MOM disabled.
  Fractional occupation disabled.
  Guess Type is SAD.
  Energy threshold   = 1.00e-08
  Density threshold  = 1.00e-08
  Integral threshold = 0.00e+00

  ==> Primary Basis <==

  Basis Set: AUG-CC-PVDZ
    Blend: AUG-CC-PVDZ
    Number of shells: 79
    Number of basis function: 183
    Number of Cartesian functions: 195
    Spherical Harmonics?: true
    Max angular momentum: 2

   => Loading Basis Set <=

    Name: (AUG-CC-PVDZ AUX)
    Role: JKFIT
    Keyword: DF_BASIS_SCF
    atoms 1, 6           entry C          line   154 file /home/xy3866/psi4conda/share/psi4/basis/aug-cc-pvdz-jkfit.gbs 
    atoms 2, 5, 7, 10-11 entry H          line    70 file /home/xy3866/psi4conda/share/psi4/basis/aug-cc-pvdz-jkfit.gbs 
    atoms 3-4, 8         entry O          line   270 file /home/xy3866/psi4conda/share/psi4/basis/aug-cc-pvdz-jkfit.gbs 
    atoms 9              entry N          line   212 file /home/xy3866/psi4conda/share/psi4/basis/aug-cc-pvdz-jkfit.gbs 

  ==> Pre-Iterations <==

   -------------------------------------------------------
    Irrep   Nso     Nmo     Nalpha   Nbeta   Ndocc  Nsocc
   -------------------------------------------------------
     A        183     183       0       0       0       0
   -------------------------------------------------------
    Total     183     183      24      24      24       0
   -------------------------------------------------------

  ==> Integral Setup <==

  ==> DiskDFJK: Density-Fitted J/K Matrices <==

    J tasked:                  Yes
    K tasked:                  Yes
    wK tasked:                  No
    OpenMP threads:              4
    Integrals threads:           4
    Memory [MiB]:            22888
    Algorithm:                Core
    Integral Cache:           SAVE
    Schwarz Cutoff:          1E-12
    Fitting Condition:       1E-10

   => Auxiliary Basis Set <=

  Basis Set: (AUG-CC-PVDZ AUX)
    Blend: AUG-CC-PVDZ-JKFIT
    Number of shells: 228
    Number of basis function: 676
    Number of Cartesian functions: 781
    Spherical Harmonics?: true
    Max angular momentum: 3

  Minimum eigenvalue in the overlap matrix is 2.5809578471E-04.
  Using Symmetric Orthogonalization.

  SCF Guess: Superposition of Atomic Densities via on-the-fly atomic UHF.

  ==> Iterations <==

                           Total Energy        Delta E     RMS |[F,P]|

   @DF-RHF iter SAD:  -356.60796393315650   -3.56608e+02   0.00000e+00 
   @DF-RHF iter   1:  -357.57730148754433   -9.69338e-01   3.69715e-03 DIIS
   @DF-RHF iter   2:  -357.70918891231810   -1.31887e-01   2.19765e-03 DIIS
   @DF-RHF iter   3:  -357.76674257264960   -5.75537e-02   3.02972e-04 DIIS
   @DF-RHF iter   4:  -357.76862489116843   -1.88232e-03   1.25866e-04 DIIS
   @DF-RHF iter   5:  -357.76891275390693   -2.87863e-04   3.15386e-05 DIIS
   @DF-RHF iter   6:  -357.76895179288618   -3.90390e-05   1.56012e-05 DIIS
   @DF-RHF iter   7:  -357.76896140041481   -9.60753e-06   5.35969e-06 DIIS
   @DF-RHF iter   8:  -357.76896286158376   -1.46117e-06   2.23618e-06 DIIS
   @DF-RHF iter   9:  -357.76896307203515   -2.10451e-07   7.22064e-07 DIIS
   @DF-RHF iter  10:  -357.76896309523522   -2.32001e-08   2.59405e-07 DIIS
   @DF-RHF iter  11:  -357.76896309749958   -2.26436e-09   1.05990e-07 DIIS
   @DF-RHF iter  12:  -357.76896309778300   -2.83421e-10   3.39369e-08 DIIS
   @DF-RHF iter  13:  -357.76896309781546   -3.24576e-11   7.37771e-09 DIIS
  Energy and wave function converged.


  ==> Post-Iterations <==

    Orbital Energies [Eh]
    ---------------------

    Doubly Occupied:                                                      

       1A    -20.585787     2A    -20.563842     3A    -20.563784  
       4A    -15.599741     5A    -11.395490     6A    -11.388492  
       7A     -1.460378     8A     -1.418295     9A     -1.361800  
      10A     -1.234917    11A     -0.905926    12A     -0.848947  
      13A     -0.775469    14A     -0.755967    15A     -0.705620  
      16A     -0.657389    17A     -0.636755    18A     -0.617329  
      19A     -0.592006    20A     -0.571706    21A     -0.477899  
      22A     -0.477864    23A     -0.446882    24A     -0.433974  

    Virtual:                                                              

      25A      0.027899    26A      0.044577    27A      0.049977  
      28A      0.069708    29A      0.085257    30A      0.085456  
      31A      0.100448    32A      0.115902    33A      0.127604  
      34A      0.142025    35A      0.146294    36A      0.153497  
      37A      0.167049    38A      0.171400    39A      0.181136  
      40A      0.188387    41A      0.189451    42A      0.222954  
      43A      0.250927    44A      0.256733    45A      0.271989  
      46A      0.274735    47A      0.285130    48A      0.288330  
      49A      0.322398    50A      0.328608    51A      0.331258  
      52A      0.335267    53A      0.347742    54A      0.361367  
      55A      0.362699    56A      0.369998    57A      0.381795  
      58A      0.415838    59A      0.423047    60A      0.432570  
      61A      0.437793    62A      0.439602    63A      0.469229  
      64A      0.489729    65A      0.505101    66A      0.520809  
      67A      0.531515    68A      0.544653    69A      0.567854  
      70A      0.585066    71A      0.598667    72A      0.626494  
      73A      0.636212    74A      0.643188    75A      0.653938  
      76A      0.659447    77A      0.681851    78A      0.684716  
      79A      0.700739    80A      0.702063    81A      0.712392  
      82A      0.728180    83A      0.739725    84A      0.746990  
      85A      0.776758    86A      0.798090    87A      0.800396  
      88A      0.827165    89A      0.861827    90A      0.908686  
      91A      0.933451    92A      0.954957    93A      0.981786  
      94A      0.982214    95A      0.991071    96A      1.012045  
      97A      1.032520    98A      1.046010    99A      1.064368  
     100A      1.119480   101A      1.152509   102A      1.158280  
     103A      1.209194   104A      1.219321   105A      1.235155  
     106A      1.241820   107A      1.256441   108A      1.266671  
     109A      1.328124   110A      1.332921   111A      1.374386  
     112A      1.407274   113A      1.444732   114A      1.487933  
     115A      1.496352   116A      1.563640   117A      1.565088  
     118A      1.596182   119A      1.634280   120A      1.649522  
     121A      1.683982   122A      1.702059   123A      1.702503  
     124A      1.746020   125A      1.758392   126A      1.789451  
     127A      1.790924   128A      1.793422   129A      1.900666  
     130A      1.911535   131A      1.929196   132A      1.987998  
     133A      2.002488   134A      2.022428   135A      2.057208  
     136A      2.077664   137A      2.109355   138A      2.142075  
     139A      2.160946   140A      2.190266   141A      2.211251  
     142A      2.220321   143A      2.279993   144A      2.303450  
     145A      2.316308   146A      2.361265   147A      2.432285  
     148A      2.448889   149A      2.482362   150A      2.520620  
     151A      2.539516   152A      2.588446   153A      2.719593  
     154A      2.796260   155A      2.806908   156A      2.846522  
     157A      2.889034   158A      2.927372   159A      2.997869  
     160A      3.111354   161A      3.149357   162A      3.177911  
     163A      3.186733   164A      3.335002   165A      3.401339  
     166A      3.450454   167A      3.599920   168A      3.691533  
     169A      3.739832   170A      3.745254   171A      3.752764  
     172A      3.771454   173A      3.824181   174A      3.826313  
     175A      3.848532   176A      3.874459   177A      3.897675  
     178A      4.022254   179A      4.075301   180A      4.103095  
     181A      4.229921   182A      4.244687   183A      4.665603  

    Final Occupation by Irrep:
              A 
    DOCC [    24 ]

  @DF-RHF Final Energy:  -357.76896309781546

   => Energetics <=

    Nuclear Repulsion Energy =            240.7798314071802110
    One-Electron Energy =                -968.1450749239315883
    Two-Electron Energy =                 369.5962804189359758
    Total Energy =                       -357.7689630978154582

Computation Completed


Properties will be evaluated at   0.000000,   0.000000,   0.000000 [a0]

Properties computed using the SCF density matrix

  Nuclear Dipole Moment: [e a0]
     X:     2.1766      Y:     1.6917      Z:    -0.0000

  Electronic Dipole Moment: [e a0]
     X:    -1.2661      Y:    -0.8803      Z:     0.0000

  Dipole Moment: [e a0]
     X:     0.9105      Y:     0.8114      Z:    -0.0000     Total:     1.2196

  Dipole Moment: [D]
     X:     2.3143      Y:     2.0624      Z:    -0.0000     Total:     3.0999


*** tstop() called on g2-node38.bme.utexas.edu at Mon Sep  9 15:33:15 2019
Module time:
	user time   =      19.07 seconds =       0.32 minutes
	system time =       0.65 seconds =       0.01 minutes
	total time  =          6 seconds =       0.10 minutes
Total time:
	user time   =      19.07 seconds =       0.32 minutes
	system time =       0.65 seconds =       0.01 minutes
	total time  =          6 seconds =       0.10 minutes

  //>>>>>>>>>>>>>>>>>>>>>>>>>>>>>>>>>>>//
  //            Monomer A HF           //
  //<<<<<<<<<<<<<<<<<<<<<<<<<<<<<<<<<<<//


*** tstart() called on g2-node38.bme.utexas.edu
*** at Mon Sep  9 15:33:15 2019

   => Loading Basis Set <=

    Name: AUG-CC-PVDZ
    Role: ORBITAL
    Keyword: BASIS
    atoms 1, 6           entry C          line   178 file /home/xy3866/psi4conda/share/psi4/basis/aug-cc-pvdz.gbs 
    atoms 2, 5, 7, 10-11 entry H          line    36 file /home/xy3866/psi4conda/share/psi4/basis/aug-cc-pvdz.gbs 
    atoms 3-4, 8         entry O          line   250 file /home/xy3866/psi4conda/share/psi4/basis/aug-cc-pvdz.gbs 
    atoms 9              entry N          line   214 file /home/xy3866/psi4conda/share/psi4/basis/aug-cc-pvdz.gbs 


         ---------------------------------------------------------
                                   SCF
               by Justin Turney, Rob Parrish, Andy Simmonett
                          and Daniel G. A. Smith
                              RHF Reference
                        4 Threads,  30517 MiB Core
         ---------------------------------------------------------

  ==> Geometry <==

    Molecular point group: c1
    Full point group: C1

    Geometry (in Angstrom), charge = 0, multiplicity = 1:

       Center              X                  Y                   Z               Mass       
    ------------   -----------------  -----------------  -----------------  -----------------
         C           -1.804150612796     0.209634330747    -0.000001170173    12.000000000000
         H           -2.897107612796     0.225800330747     0.000000829827     1.007825032230
         O           -1.134371612796     1.225562330747    -0.000000170173    15.994914619570
         O           -1.356562612796    -1.029396669253    -0.000001170173    15.994914619570
         H           -0.358216612796    -1.035103669253    -0.000001170173     1.007825032230
      Gh(C)           1.823775787204    -0.250086669253     0.000002729827    12.000000000000
      Gh(H)           2.906471787204    -0.422112669253    -0.000001270173     1.007825032230
      Gh(O)           1.034386787204    -1.193219669253    -0.000000270173    15.994914619570
      Gh(N)           1.478942787204     1.043065330747     0.000000729827    14.003074004430
      Gh(H)           0.493537787204     1.294385330747    -0.000000270173     1.007825032230
      Gh(H)           2.189156787204     1.749945330747    -0.000001270173     1.007825032230

  Running in c1 symmetry.

  Rotational constants: A =      0.19575  B =      0.08465  C =      0.05910 [cm^-1]
  Rotational constants: A =   5868.49011  B =   2537.83208  C =   1771.67162 [MHz]
  Nuclear repulsion =   70.088027451303887

  Charge       = 0
  Multiplicity = 1
  Electrons    = 24
  Nalpha       = 12
  Nbeta        = 12

  ==> Algorithm <==

  SCF Algorithm Type is DF.
  DIIS enabled.
  MOM disabled.
  Fractional occupation disabled.
  Guess Type is SAD.
  Energy threshold   = 1.00e-08
  Density threshold  = 1.00e-08
  Integral threshold = 0.00e+00

  ==> Primary Basis <==

  Basis Set: AUG-CC-PVDZ
    Blend: AUG-CC-PVDZ
    Number of shells: 79
    Number of basis function: 183
    Number of Cartesian functions: 195
    Spherical Harmonics?: true
    Max angular momentum: 2

   => Loading Basis Set <=

    Name: (AUG-CC-PVDZ AUX)
    Role: JKFIT
    Keyword: DF_BASIS_SCF
    atoms 1, 6           entry C          line   154 file /home/xy3866/psi4conda/share/psi4/basis/aug-cc-pvdz-jkfit.gbs 
    atoms 2, 5, 7, 10-11 entry H          line    70 file /home/xy3866/psi4conda/share/psi4/basis/aug-cc-pvdz-jkfit.gbs 
    atoms 3-4, 8         entry O          line   270 file /home/xy3866/psi4conda/share/psi4/basis/aug-cc-pvdz-jkfit.gbs 
    atoms 9              entry N          line   212 file /home/xy3866/psi4conda/share/psi4/basis/aug-cc-pvdz-jkfit.gbs 

  ==> Pre-Iterations <==

   -------------------------------------------------------
    Irrep   Nso     Nmo     Nalpha   Nbeta   Ndocc  Nsocc
   -------------------------------------------------------
     A        183     183       0       0       0       0
   -------------------------------------------------------
    Total     183     183      12      12      12       0
   -------------------------------------------------------

  ==> Integral Setup <==

  ==> DiskDFJK: Density-Fitted J/K Matrices <==

    J tasked:                  Yes
    K tasked:                  Yes
    wK tasked:                  No
    OpenMP threads:              4
    Integrals threads:           4
    Memory [MiB]:            22888
    Algorithm:                Core
    Integral Cache:           LOAD
    Schwarz Cutoff:          1E-12
    Fitting Condition:       1E-10

   => Auxiliary Basis Set <=

  Basis Set: (AUG-CC-PVDZ AUX)
    Blend: AUG-CC-PVDZ-JKFIT
    Number of shells: 228
    Number of basis function: 676
    Number of Cartesian functions: 781
    Spherical Harmonics?: true
    Max angular momentum: 3

  Minimum eigenvalue in the overlap matrix is 2.5809578471E-04.
  Using Symmetric Orthogonalization.

  SCF Guess: Superposition of Atomic Densities via on-the-fly atomic UHF.

  ==> Iterations <==

                           Total Energy        Delta E     RMS |[F,P]|

   @DF-RHF iter SAD:  -187.95998640678744   -1.87960e+02   0.00000e+00 
   @DF-RHF iter   1:  -188.68733851848069   -7.27352e-01   2.76919e-03 DIIS
   @DF-RHF iter   2:  -188.75070782143496   -6.33693e-02   1.91487e-03 DIIS
   @DF-RHF iter   3:  -188.79333598650547   -4.26282e-02   2.35979e-04 DIIS
   @DF-RHF iter   4:  -188.79446097483401   -1.12499e-03   1.20593e-04 DIIS
   @DF-RHF iter   5:  -188.79473458592295   -2.73611e-04   2.86010e-05 DIIS
   @DF-RHF iter   6:  -188.79477280449512   -3.82186e-05   1.25327e-05 DIIS
   @DF-RHF iter   7:  -188.79478153028924   -8.72579e-06   4.28705e-06 DIIS
   @DF-RHF iter   8:  -188.79478240801518   -8.77726e-07   1.35196e-06 DIIS
   @DF-RHF iter   9:  -188.79478249417525   -8.61601e-08   3.64512e-07 DIIS
   @DF-RHF iter  10:  -188.79478250027819   -6.10294e-09   7.54577e-08 DIIS
   @DF-RHF iter  11:  -188.79478250051613   -2.37947e-10   1.25079e-08 DIIS
   @DF-RHF iter  12:  -188.79478250052256   -6.42331e-12   2.59648e-09 DIIS
  Energy and wave function converged.


  ==> Post-Iterations <==

    Orbital Energies [Eh]
    ---------------------

    Doubly Occupied:                                                      

       1A    -20.646053     2A    -20.572774     3A    -11.406628  
       4A     -1.484578     5A     -1.374889     6A     -0.903289  
       7A     -0.731597     8A     -0.712694     9A     -0.642964  
      10A     -0.596835    11A     -0.490919    12A     -0.470025  

    Virtual:                                                              

      13A      0.025380    14A      0.039865    15A      0.052370  
      16A      0.062893    17A      0.078014    18A      0.086276  
      19A      0.096979    20A      0.099416    21A      0.109547  
      22A      0.126658    23A      0.146299    24A      0.158371  
      25A      0.160144    26A      0.163896    27A      0.173084  
      28A      0.182684    29A      0.192718    30A      0.212819  
      31A      0.230920    32A      0.246394    33A      0.254489  
      34A      0.259748    35A      0.268070    36A      0.283311  
      37A      0.301679    38A      0.309674    39A      0.314346  
      40A      0.335669    41A      0.355627    42A      0.376211  
      43A      0.385671    44A      0.388323    45A      0.400002  
      46A      0.418598    47A      0.426421    48A      0.444628  
      49A      0.446937    50A      0.458800    51A      0.488679  
      52A      0.488941    53A      0.494991    54A      0.503174  
      55A      0.526333    56A      0.555994    57A      0.574987  
      58A      0.585916    59A      0.593736    60A      0.599931  
      61A      0.626420    62A      0.630662    63A      0.639763  
      64A      0.660121    65A      0.667427    66A      0.689097  
      67A      0.694339    68A      0.704563    69A      0.733229  
      70A      0.755466    71A      0.787012    72A      0.789261  
      73A      0.797667    74A      0.845968    75A      0.854174  
      76A      0.875543    77A      0.902592    78A      0.920571  
      79A      0.947729    80A      0.990697    81A      1.006588  
      82A      1.010132    83A      1.032298    84A      1.033638  
      85A      1.102575    86A      1.113988    87A      1.140226  
      88A      1.147597    89A      1.161511    90A      1.167660  
      91A      1.210358    92A      1.230119    93A      1.238495  
      94A      1.249140    95A      1.260688    96A      1.297567  
      97A      1.317272    98A      1.348920    99A      1.367455  
     100A      1.396440   101A      1.409190   102A      1.413403  
     103A      1.459260   104A      1.484159   105A      1.503049  
     106A      1.554471   107A      1.564548   108A      1.622547  
     109A      1.658333   110A      1.673688   111A      1.696719  
     112A      1.731968   113A      1.788941   114A      1.801768  
     115A      1.834220   116A      1.913806   117A      1.999742  
     118A      2.053634   119A      2.087126   120A      2.105844  
     121A      2.142446   122A      2.167337   123A      2.173598  
     124A      2.217407   125A      2.280664   126A      2.302133  
     127A      2.361270   128A      2.400390   129A      2.400465  
     130A      2.420203   131A      2.503995   132A      2.518389  
     133A      2.553272   134A      2.643230   135A      2.746733  
     136A      2.804905   137A      2.817082   138A      2.829723  
     139A      2.920490   140A      2.959389   141A      3.054174  
     142A      3.063740   143A      3.174711   144A      3.192364  
     145A      3.234439   146A      3.246543   147A      3.270017  
     148A      3.381386   149A      3.503929   150A      3.542968  
     151A      3.649426   152A      3.682501   153A      3.731656  
     154A      3.743345   155A      3.752941   156A      3.772883  
     157A      3.775696   158A      3.851033   159A      3.855318  
     160A      3.922598   161A      3.999037   162A      4.064325  
     163A      4.236853   164A      4.271703   165A      4.409307  
     166A      4.559215   167A      4.595590   168A      4.602608  
     169A      4.787117   170A      4.920011   171A      5.036650  
     172A      5.044772   173A      5.236538   174A      5.363520  
     175A      5.845068   176A      5.949486   177A      6.096626  
     178A      6.340060   179A      6.444301   180A      7.080970  
     181A     18.627576   182A     25.499702   183A     33.481118  

    Final Occupation by Irrep:
              A 
    DOCC [    12 ]

  @DF-RHF Final Energy:  -188.79478250052256

   => Energetics <=

    Nuclear Repulsion Energy =             70.0880274513038870
    One-Electron Energy =                -397.6991304672939123
    Two-Electron Energy =                 138.8163205154674529
    Total Energy =                       -188.7947825005225582

Computation Completed


Properties will be evaluated at   0.000000,   0.000000,   0.000000 [a0]

Properties computed using the SCF density matrix

  Nuclear Dipole Moment: [e a0]
     X:   -64.2652      Y:     3.8131      Z:    -0.0000

  Electronic Dipole Moment: [e a0]
     X:    64.1267      Y:    -4.6139      Z:     0.0000

  Dipole Moment: [e a0]
     X:    -0.1386      Y:    -0.8008      Z:    -0.0000     Total:     0.8127

  Dipole Moment: [D]
     X:    -0.3522      Y:    -2.0354      Z:    -0.0000     Total:     2.0656


*** tstop() called on g2-node38.bme.utexas.edu at Mon Sep  9 15:33:18 2019
Module time:
	user time   =      10.17 seconds =       0.17 minutes
	system time =       0.30 seconds =       0.01 minutes
	total time  =          3 seconds =       0.05 minutes
Total time:
	user time   =      29.27 seconds =       0.49 minutes
	system time =       0.95 seconds =       0.02 minutes
	total time  =          9 seconds =       0.15 minutes

  //>>>>>>>>>>>>>>>>>>>>>>>>>>>>>>>>>>>//
  //            Monomer B HF           //
  //<<<<<<<<<<<<<<<<<<<<<<<<<<<<<<<<<<<//


*** tstart() called on g2-node38.bme.utexas.edu
*** at Mon Sep  9 15:33:18 2019

   => Loading Basis Set <=

    Name: AUG-CC-PVDZ
    Role: ORBITAL
    Keyword: BASIS
    atoms 1, 6           entry C          line   178 file /home/xy3866/psi4conda/share/psi4/basis/aug-cc-pvdz.gbs 
    atoms 2, 5, 7, 10-11 entry H          line    36 file /home/xy3866/psi4conda/share/psi4/basis/aug-cc-pvdz.gbs 
    atoms 3-4, 8         entry O          line   250 file /home/xy3866/psi4conda/share/psi4/basis/aug-cc-pvdz.gbs 
    atoms 9              entry N          line   214 file /home/xy3866/psi4conda/share/psi4/basis/aug-cc-pvdz.gbs 


         ---------------------------------------------------------
                                   SCF
               by Justin Turney, Rob Parrish, Andy Simmonett
                          and Daniel G. A. Smith
                              RHF Reference
                        4 Threads,  30517 MiB Core
         ---------------------------------------------------------

  ==> Geometry <==

    Molecular point group: c1
    Full point group: C1

    Geometry (in Angstrom), charge = 0, multiplicity = 1:

       Center              X                  Y                   Z               Mass       
    ------------   -----------------  -----------------  -----------------  -----------------
      Gh(C)          -1.804150612796     0.209634330747    -0.000001170173    12.000000000000
      Gh(H)          -2.897107612796     0.225800330747     0.000000829827     1.007825032230
      Gh(O)          -1.134371612796     1.225562330747    -0.000000170173    15.994914619570
      Gh(O)          -1.356562612796    -1.029396669253    -0.000001170173    15.994914619570
      Gh(H)          -0.358216612796    -1.035103669253    -0.000001170173     1.007825032230
         C            1.823775787204    -0.250086669253     0.000002729827    12.000000000000
         H            2.906471787204    -0.422112669253    -0.000001270173     1.007825032230
         O            1.034386787204    -1.193219669253    -0.000000270173    15.994914619570
         N            1.478942787204     1.043065330747     0.000000729827    14.003074004430
         H            0.493537787204     1.294385330747    -0.000000270173     1.007825032230
         H            2.189156787204     1.749945330747    -0.000001270173     1.007825032230

  Running in c1 symmetry.

  Rotational constants: A =      0.19575  B =      0.08465  C =      0.05910 [cm^-1]
  Rotational constants: A =   5868.49011  B =   2537.83208  C =   1771.67162 [MHz]
  Nuclear repulsion =   71.226316789148910

  Charge       = 0
  Multiplicity = 1
  Electrons    = 24
  Nalpha       = 12
  Nbeta        = 12

  ==> Algorithm <==

  SCF Algorithm Type is DF.
  DIIS enabled.
  MOM disabled.
  Fractional occupation disabled.
  Guess Type is SAD.
  Energy threshold   = 1.00e-08
  Density threshold  = 1.00e-08
  Integral threshold = 0.00e+00

  ==> Primary Basis <==

  Basis Set: AUG-CC-PVDZ
    Blend: AUG-CC-PVDZ
    Number of shells: 79
    Number of basis function: 183
    Number of Cartesian functions: 195
    Spherical Harmonics?: true
    Max angular momentum: 2

   => Loading Basis Set <=

    Name: (AUG-CC-PVDZ AUX)
    Role: JKFIT
    Keyword: DF_BASIS_SCF
    atoms 1, 6           entry C          line   154 file /home/xy3866/psi4conda/share/psi4/basis/aug-cc-pvdz-jkfit.gbs 
    atoms 2, 5, 7, 10-11 entry H          line    70 file /home/xy3866/psi4conda/share/psi4/basis/aug-cc-pvdz-jkfit.gbs 
    atoms 3-4, 8         entry O          line   270 file /home/xy3866/psi4conda/share/psi4/basis/aug-cc-pvdz-jkfit.gbs 
    atoms 9              entry N          line   212 file /home/xy3866/psi4conda/share/psi4/basis/aug-cc-pvdz-jkfit.gbs 

  ==> Pre-Iterations <==

   -------------------------------------------------------
    Irrep   Nso     Nmo     Nalpha   Nbeta   Ndocc  Nsocc
   -------------------------------------------------------
     A        183     183       0       0       0       0
   -------------------------------------------------------
    Total     183     183      12      12      12       0
   -------------------------------------------------------

  ==> Integral Setup <==

  ==> DiskDFJK: Density-Fitted J/K Matrices <==

    J tasked:                  Yes
    K tasked:                  Yes
    wK tasked:                  No
    OpenMP threads:              4
    Integrals threads:           4
    Memory [MiB]:            22888
    Algorithm:                Core
    Integral Cache:           LOAD
    Schwarz Cutoff:          1E-12
    Fitting Condition:       1E-10

   => Auxiliary Basis Set <=

  Basis Set: (AUG-CC-PVDZ AUX)
    Blend: AUG-CC-PVDZ-JKFIT
    Number of shells: 228
    Number of basis function: 676
    Number of Cartesian functions: 781
    Spherical Harmonics?: true
    Max angular momentum: 3

  Minimum eigenvalue in the overlap matrix is 2.5809578471E-04.
  Using Symmetric Orthogonalization.

  SCF Guess: Superposition of Atomic Densities via on-the-fly atomic UHF.

  ==> Iterations <==

                           Total Energy        Delta E     RMS |[F,P]|

   @DF-RHF iter SAD:  -168.17979883156232   -1.68180e+02   0.00000e+00 
   @DF-RHF iter   1:  -168.83879438938263   -6.58996e-01   2.83810e-03 DIIS
   @DF-RHF iter   2:  -168.91738975245499   -7.85954e-02   1.89714e-03 DIIS
   @DF-RHF iter   3:  -168.96076867842419   -4.33789e-02   2.83315e-04 DIIS
   @DF-RHF iter   4:  -168.96223176670992   -1.46309e-03   1.18296e-04 DIIS
   @DF-RHF iter   5:  -168.96252282322743   -2.91057e-04   2.32111e-05 DIIS
   @DF-RHF iter   6:  -168.96255087268193   -2.80495e-05   1.12498e-05 DIIS
   @DF-RHF iter   7:  -168.96255686662039   -5.99394e-06   4.37022e-06 DIIS
   @DF-RHF iter   8:  -168.96255783132830   -9.64708e-07   1.32969e-06 DIIS
   @DF-RHF iter   9:  -168.96255791899995   -8.76717e-08   3.50546e-07 DIIS
   @DF-RHF iter  10:  -168.96255792520003   -6.20008e-09   7.88721e-08 DIIS
   @DF-RHF iter  11:  -168.96255792547194   -2.71910e-10   1.38281e-08 DIIS
   @DF-RHF iter  12:  -168.96255792547984   -7.90124e-12   2.61650e-09 DIIS
  Energy and wave function converged.


  ==> Post-Iterations <==

    Orbital Energies [Eh]
    ---------------------

    Doubly Occupied:                                                      

       1A    -20.536657     2A    -15.609732     3A    -11.365466  
       4A     -1.380446     5A     -1.231092     6A     -0.856669  
       7A     -0.759920     8A     -0.678239     9A     -0.603383  
      10A     -0.571758    11A     -0.433947    12A     -0.420551  

    Virtual:                                                              

      13A      0.024126    14A      0.035762    15A      0.048578  
      16A      0.066590    17A      0.079151    18A      0.086275  
      19A      0.102306    20A      0.107646    21A      0.120366  
      22A      0.130968    23A      0.147892    24A      0.155985  
      25A      0.161464    26A      0.167372    27A      0.174125  
      28A      0.188278    29A      0.202183    30A      0.229180  
      31A      0.231655    32A      0.237113    33A      0.243883  
      34A      0.254014    35A      0.277990    36A      0.288344  
      37A      0.310424    38A      0.318189    39A      0.324330  
      40A      0.331807    41A      0.354439    42A      0.356460  
      43A      0.365086    44A      0.379825    45A      0.389238  
      46A      0.423037    47A      0.429870    48A      0.444045  
      49A      0.447574    50A      0.469772    51A      0.481807  
      52A      0.510938    53A      0.514925    54A      0.531074  
      55A      0.546871    56A      0.554228    57A      0.568282  
      58A      0.597269    59A      0.608853    60A      0.625393  
      61A      0.627133    62A      0.631513    63A      0.659513  
      64A      0.669847    65A      0.680455    66A      0.689872  
      67A      0.707007    68A      0.713040    69A      0.715786  
      70A      0.735330    71A      0.750780    72A      0.778818  
      73A      0.808428    74A      0.816935    75A      0.827961  
      76A      0.838727    77A      0.871664    78A      0.921501  
      79A      0.964132    80A      0.971415    81A      0.980831  
      82A      0.989028    83A      1.005149    84A      1.030378  
      85A      1.075217    86A      1.079785    87A      1.135616  
      88A      1.139971    89A      1.165673    90A      1.210261  
      91A      1.262006    92A      1.265332    93A      1.272773  
      94A      1.340689    95A      1.350596    96A      1.376937  
      97A      1.393075    98A      1.401829    99A      1.431122  
     100A      1.445356   101A      1.461726   102A      1.464805  
     103A      1.489924   104A      1.496938   105A      1.511991  
     106A      1.581310   107A      1.589245   108A      1.595682  
     109A      1.648023   110A      1.650189   111A      1.673719  
     112A      1.716609   113A      1.759450   114A      1.788123  
     115A      1.788593   116A      1.886503   117A      1.927846  
     118A      1.975600   119A      2.038831   120A      2.039750  
     121A      2.080346   122A      2.094345   123A      2.114882  
     124A      2.137119   125A      2.222533   126A      2.294504  
     127A      2.316177   128A      2.342014   129A      2.354554  
     130A      2.380241   131A      2.416235   132A      2.443100  
     133A      2.508702   134A      2.576536   135A      2.626169  
     136A      2.657937   137A      2.682429   138A      2.775511  
     139A      2.783710   140A      2.835690   141A      2.851702  
     142A      2.890407   143A      2.927085   144A      3.040917  
     145A      3.091200   146A      3.145051   147A      3.199313  
     148A      3.280119   149A      3.302637   150A      3.325842  
     151A      3.453685   152A      3.549402   153A      3.609353  
     154A      3.699084   155A      3.789235   156A      3.853421  
     157A      3.879562   158A      3.949449   159A      4.082511  
     160A      4.264052   161A      4.339296   162A      4.504974  
     163A      4.641308   164A      4.893472   165A      4.935340  
     166A      4.989463   167A      5.031596   168A      5.036269  
     169A      5.075582   170A      5.129308   171A      5.307251  
     172A      5.590847   173A      5.769019   174A      5.817189  
     175A      5.922488   176A      6.003596   177A      6.356267  
     178A      6.753713   179A      7.090828   180A      7.341380  
     181A     18.615311   182A     33.517972   183A     33.633093  

    Final Occupation by Irrep:
              A 
    DOCC [    12 ]

  @DF-RHF Final Energy:  -168.96255792547984

   => Energetics <=

    Nuclear Repulsion Energy =             71.2263167891489104
    One-Electron Energy =                -371.4820317079766028
    Two-Electron Energy =                 131.2931569933478784
    Total Energy =                       -168.9625579254798424

Computation Completed


Properties will be evaluated at   0.000000,   0.000000,   0.000000 [a0]

Properties computed using the SCF density matrix

  Nuclear Dipole Moment: [e a0]
     X:    66.4419      Y:    -2.1214      Z:     0.0000

  Electronic Dipole Moment: [e a0]
     X:   -65.7083      Y:     3.7257      Z:    -0.0000

  Dipole Moment: [e a0]
     X:     0.7335      Y:     1.6043      Z:    -0.0000     Total:     1.7640

  Dipole Moment: [D]
     X:     1.8644      Y:     4.0776      Z:    -0.0000     Total:     4.4836


*** tstop() called on g2-node38.bme.utexas.edu at Mon Sep  9 15:33:21 2019
Module time:
	user time   =      10.41 seconds =       0.17 minutes
	system time =       0.31 seconds =       0.01 minutes
	total time  =          3 seconds =       0.05 minutes
Total time:
	user time   =      39.70 seconds =       0.66 minutes
	system time =       1.26 seconds =       0.02 minutes
	total time  =         12 seconds =       0.20 minutes
  Constructing Basis Sets for SAPT...

   => Loading Basis Set <=

    Name: (AUG-CC-PVDZ AUX)
    Role: RIFIT
    Keyword: DF_BASIS_SAPT
    atoms 1, 6           entry C          line   112 file /home/xy3866/psi4conda/share/psi4/basis/aug-cc-pvdz-ri.gbs 
    atoms 2, 5, 7, 10-11 entry H          line    30 file /home/xy3866/psi4conda/share/psi4/basis/aug-cc-pvdz-ri.gbs 
    atoms 3-4, 8         entry O          line   204 file /home/xy3866/psi4conda/share/psi4/basis/aug-cc-pvdz-ri.gbs 
    atoms 9              entry N          line   158 file /home/xy3866/psi4conda/share/psi4/basis/aug-cc-pvdz-ri.gbs 


  //>>>>>>>>>>>>>>>>>>>>>>>>>>>>>>>>>>>//
  //               SAPT2+              //
  //<<<<<<<<<<<<<<<<<<<<<<<<<<<<<<<<<<<//


*** tstart() called on g2-node38.bme.utexas.edu
*** at Mon Sep  9 15:33:22 2019

        SAPT2+  
    Ed Hohenstein
     6 June 2009

      Orbital Information
  --------------------------
    NSO        =       183
    NMO        =       183
    NRI        =       547
    NOCC A     =        12
    NOCC B     =        12
    FOCC A     =         3
    FOCC B     =         3
    NVIR A     =       171
    NVIR B     =       171

    Estimated memory usage: 229.0 MB

    Natural Orbital Cutoff:   1.000E-06
    Disp(T3) Truncation:            Yes
    CCD (vv|vv) Truncation:         Yes
    MBPT T2 Truncation:             Yes

    Monomer A: 86 virtual orbitals dropped
    Monomer B: 78 virtual orbitals dropped

    Elst10,r            =    -0.077608542765 [Eh]
    Exch10 (S^2)        =     0.109440590839 [Eh]
    Exch10              =     0.113151864287 [Eh]
    Ind20,r (A<-B)      =    -0.025454231226 [Eh]
    Ind20,r (B<-A)      =    -0.034328094515 [Eh]
    Ind20,r             =    -0.059782325741 [Eh]
    Exch-Ind20,r (A<-B) =     0.016650508394 [Eh]
    Exch-Ind20,r (B<-A) =     0.017012146128 [Eh]
    Exch-Ind20,r        =     0.033662654522 [Eh]
    Disp20              =    -0.024549961586 [Eh]
    Disp20 (NO)         =    -0.022551795383 [Eh]
    Exch-Disp20         =     0.005648548324 [Eh]
    Elst12,r            =     0.000889376394 [Eh]
    Exch11              =    -0.000533553541 [Eh]
    Exch12              =     0.015066160848 [Eh]
    Ind22               =    -0.009805323438 [Eh]
    Disp21              =     0.002921705657 [Eh]
    Disp22 (SDQ)        =    -0.001523032943 [Eh]

    (i =   1 of   9)          2 seconds
    (i =   2 of   9)          4 seconds
    (i =   3 of   9)          5 seconds
    (i =   4 of   9)          7 seconds
    (i =   5 of   9)          9 seconds
    (i =   6 of   9)         11 seconds
    (i =   7 of   9)         13 seconds
    (i =   8 of   9)         15 seconds
    (i =   9 of   9)         16 seconds

    Disp220 (T)         =    -0.001958093033 [Eh]

    (i =   1 of   9)          2 seconds
    (i =   2 of   9)          4 seconds
    (i =   3 of   9)          6 seconds
    (i =   4 of   9)          8 seconds
    (i =   5 of   9)         10 seconds
    (i =   6 of   9)         12 seconds
    (i =   7 of   9)         14 seconds
    (i =   8 of   9)         16 seconds
    (i =   9 of   9)         18 seconds

    Disp202 (T)         =    -0.001786758743 [Eh]

    Disp22 (T)          =    -0.003744851777 [Eh]

    Est. Disp220 (T)    =    -0.002131586773 [Eh]
    Est. Disp202 (T)    =    -0.001945071679 [Eh]

    Est. Disp22 (T)     =    -0.004076658452 [Eh]

    SAPT Results 
  --------------------------------------------------------------------------------------------------------
    Electrostatics                -76.71916637 [mEh]     -48.14200372 [kcal/mol]    -201.42614356 [kJ/mol]
      Elst10,r                    -77.60854277 [mEh]     -48.70009583 [kcal/mol]    -203.76120096 [kJ/mol]
      Elst12,r                      0.88937639 [mEh]       0.55809211 [kcal/mol]       2.33505740 [kJ/mol]

    Exchange                      127.68447159 [mEh]      80.12321558 [kcal/mol]     335.23553399 [kJ/mol]
      Exch10                      113.15186429 [mEh]      71.00386682 [kcal/mol]     297.08017876 [kJ/mol]
      Exch10(S^2)                 109.44059084 [mEh]      68.67500757 [kcal/mol]     287.33623166 [kJ/mol]
      Exch11(S^2)                  -0.53355354 [mEh]      -0.33480990 [kcal/mol]      -1.40084463 [kJ/mol]
      Exch12(S^2)                  15.06616085 [mEh]       9.45415867 [kcal/mol]      39.55619986 [kJ/mol]

    Induction                     -51.45006595 [mEh]     -32.28540381 [kcal/mol]    -135.08212953 [kJ/mol]
      Ind20,r                     -59.78232574 [mEh]     -37.51397577 [kcal/mol]    -156.95847461 [kJ/mol]
      Ind22                        -9.80532344 [mEh]      -6.15293335 [kcal/mol]     -25.74387314 [kJ/mol]
      Exch-Ind20,r                 33.66265452 [mEh]      21.12363463 [kcal/mol]      88.38128727 [kJ/mol]
      Exch-Ind22                    5.52125083 [mEh]       3.46463720 [kcal/mol]      14.49604205 [kJ/mol]
      delta HF,r (2)              -21.04632212 [mEh]     -13.20676652 [kcal/mol]     -55.25711110 [kJ/mol]

    Dispersion                    -21.57939900 [mEh]     -13.54127731 [kcal/mol]     -56.65670427 [kJ/mol]
      Disp20                      -24.54996159 [mEh]     -15.40533348 [kcal/mol]     -64.45591526 [kJ/mol]
      Disp21                        2.92170566 [mEh]       1.83339798 [kcal/mol]       7.67093714 [kJ/mol]
      Disp22 (SDQ)                 -1.52303294 [mEh]      -0.95571760 [kcal/mol]      -3.99872244 [kJ/mol]
      Disp22 (T)                   -3.74485178 [mEh]      -2.34992997 [kcal/mol]      -9.83210699 [kJ/mol]
      Est. Disp22 (T)              -4.07665845 [mEh]      -2.55814180 [kcal/mol]     -10.70326529 [kJ/mol]
      Exch-Disp20                   5.64854832 [mEh]       3.54451759 [kcal/mol]      14.83026158 [kJ/mol]

  Total HF                        -11.62267181 [mEh]      -7.29333667 [kcal/mol]     -30.51532064 [kJ/mol]
  Total SAPT0                     -30.52408507 [mEh]     -19.15415256 [kcal/mol]     -80.14097432 [kJ/mol]
  Total SAPT2                     -19.38617399 [mEh]     -12.16500784 [kcal/mol]     -50.89839279 [kJ/mol]
  Total SAPT2+                    -22.06415972 [mEh]     -13.84546926 [kcal/mol]     -57.92944337 [kJ/mol]

  Special recipe for scaled SAPT0 (see Manual):
    Electrostatics sSAPT0         -77.60854277 [mEh]     -48.70009583 [kcal/mol]    -203.76120096 [kJ/mol]
    Exchange sSAPT0               113.15186429 [mEh]      71.00386682 [kcal/mol]     297.08017876 [kJ/mol]
    Induction sSAPT0              -43.62391297 [mEh]     -27.37441867 [kcal/mol]    -114.53456771 [kJ/mol]
    Dispersion sSAPT0             -18.30705692 [mEh]     -11.48785166 [kcal/mol]     -48.06517133 [kJ/mol]
  Total sSAPT0                    -26.38764836 [mEh]     -16.55849934 [kcal/mol]     -69.28076124 [kJ/mol]
  --------------------------------------------------------------------------------------------------------

*** tstop() called on g2-node38.bme.utexas.edu at Mon Sep  9 15:34:19 2019
Module time:
	user time   =     221.99 seconds =       3.70 minutes
	system time =       7.45 seconds =       0.12 minutes
	total time  =         57 seconds =       0.95 minutes
Total time:
	user time   =     262.08 seconds =       4.37 minutes
	system time =       8.72 seconds =       0.15 minutes
	total time  =         70 seconds =       1.17 minutes

    Psi4 stopped on: Monday, 09 September 2019 03:34PM
    Psi4 wall time for execution: 0:01:10.53

*** Psi4 exiting successfully. Buy a developer a beer!
