
    -----------------------------------------------------------------------
          Psi4: An Open-Source Ab Initio Electronic Structure Package
                               Psi4 1.3.2 release

                         Git: Rev {HEAD} ecbda83 


    R. M. Parrish, L. A. Burns, D. G. A. Smith, A. C. Simmonett,
    A. E. DePrince III, E. G. Hohenstein, U. Bozkaya, A. Yu. Sokolov,
    R. Di Remigio, R. M. Richard, J. F. Gonthier, A. M. James,
    H. R. McAlexander, A. Kumar, M. Saitow, X. Wang, B. P. Pritchard,
    P. Verma, H. F. Schaefer III, K. Patkowski, R. A. King, E. F. Valeev,
    F. A. Evangelista, J. M. Turney, T. D. Crawford, and C. D. Sherrill,
    J. Chem. Theory Comput. 13(7) pp 3185--3197 (2017).
    (doi: 10.1021/acs.jctc.7b00174)


                         Additional Contributions by
    P. Kraus, H. Kruse, M. H. Lechner, M. C. Schieber, R. A. Shaw,
    A. Alenaizan, R. Galvelis, Z. L. Glick, S. Lehtola, and J. P. Misiewicz

    -----------------------------------------------------------------------


    Psi4 started on: Monday, 09 September 2019 03:52PM

    Process ID: 94041
    Host:       g2-node38.bme.utexas.edu
    PSIDATADIR: /home/xy3866/psi4conda/share/psi4
    Memory:     500.0 MiB
    Threads:    4
    
  ==> Input File <==

--------------------------------------------------------------------------
#psi4
#
memory 32 gb

molecule  {
0 1
  C       -1.9644470     0.1609890    -0.0000020
  H       -3.0589320     0.1627090    -0.0000040
  O       -1.3160380     1.1929960    -0.0000020
  O       -1.4968300    -1.0660630     0.0000020
  H       -0.4778920    -1.0649310     0.0000090
--
0 1
  C        2.1421821    -0.1882372    -0.0000030
  H        3.2239981    -0.3104621    -0.0000050
  N        1.3243911    -1.1856042    -0.0000010
  H        1.8349861    -2.0591092    -0.0000010
  N        1.7273321     1.0885868     0.0000020
  H        0.7313151     1.2871198     0.0000010
  H        2.3942521     1.8332628     0.0000040
units angstrom
no_reorient  #important for SAPT in psi4, default
symmetry c1  #important for SAPT in psi4, default
}

set {
basis aug-cc-pVDZ
scf_type DF
freeze_core True
}
energy('sapt2+')
--------------------------------------------------------------------------

  Memory set to  29.802 GiB by Python driver.

  //>>>>>>>>>>>>>>>>>>>>>>>>>>>>>>>>>>>//
  //              Dimer HF             //
  //<<<<<<<<<<<<<<<<<<<<<<<<<<<<<<<<<<<//


*** tstart() called on g2-node38.bme.utexas.edu
*** at Mon Sep  9 15:52:14 2019

   => Loading Basis Set <=

    Name: AUG-CC-PVDZ
    Role: ORBITAL
    Keyword: BASIS
    atoms 1, 6              entry C          line   178 file /home/xy3866/psi4conda/share/psi4/basis/aug-cc-pvdz.gbs 
    atoms 2, 5, 7, 9, 11-12 entry H          line    36 file /home/xy3866/psi4conda/share/psi4/basis/aug-cc-pvdz.gbs 
    atoms 3-4               entry O          line   250 file /home/xy3866/psi4conda/share/psi4/basis/aug-cc-pvdz.gbs 
    atoms 8, 10             entry N          line   214 file /home/xy3866/psi4conda/share/psi4/basis/aug-cc-pvdz.gbs 


         ---------------------------------------------------------
                                   SCF
               by Justin Turney, Rob Parrish, Andy Simmonett
                          and Daniel G. A. Smith
                              RHF Reference
                        4 Threads,  30517 MiB Core
         ---------------------------------------------------------

  ==> Geometry <==

    Molecular point group: c1
    Full point group: C1

    Geometry (in Angstrom), charge = 0, multiplicity = 1:

       Center              X                  Y                   Z               Mass       
    ------------   -----------------  -----------------  -----------------  -----------------
         C           -2.015076623678     0.158854831583    -0.000001533938    12.000000000000
         H           -3.109561623678     0.160574831583    -0.000003533938     1.007825032230
         O           -1.366667623678     1.190861831583    -0.000001533938    15.994914619570
         O           -1.547459623678    -1.068197168417     0.000002466062    15.994914619570
         H           -0.528521623678    -1.067065168417     0.000009466062     1.007825032230
         C            2.091552476322    -0.190371368417    -0.000002533938    12.000000000000
         H            3.173368476322    -0.312596268417    -0.000004533938     1.007825032230
         N            1.273761476322    -1.187738368417    -0.000000533938    14.003074004430
         H            1.784356476322    -2.061243368417    -0.000000533938     1.007825032230
         N            1.676702476322     1.086452631583     0.000002466062    14.003074004430
         H            0.680685476322     1.284985631583     0.000001466062     1.007825032230
         H            2.343622476322     1.831128631583     0.000004466062     1.007825032230

  Running in c1 symmetry.

  Rotational constants: A =      0.19051  B =      0.06460  C =      0.04824 [cm^-1]
  Rotational constants: A =   5711.23674  B =   1936.79099  C =   1446.31691 [MHz]
  Nuclear repulsion =  228.914665696473975

  Charge       = 0
  Multiplicity = 1
  Electrons    = 48
  Nalpha       = 24
  Nbeta        = 24

  ==> Algorithm <==

  SCF Algorithm Type is DF.
  DIIS enabled.
  MOM disabled.
  Fractional occupation disabled.
  Guess Type is SAD.
  Energy threshold   = 1.00e-08
  Density threshold  = 1.00e-08
  Integral threshold = 0.00e+00

  ==> Primary Basis <==

  Basis Set: AUG-CC-PVDZ
    Blend: AUG-CC-PVDZ
    Number of shells: 84
    Number of basis function: 192
    Number of Cartesian functions: 204
    Spherical Harmonics?: true
    Max angular momentum: 2

   => Loading Basis Set <=

    Name: (AUG-CC-PVDZ AUX)
    Role: JKFIT
    Keyword: DF_BASIS_SCF
    atoms 1, 6              entry C          line   154 file /home/xy3866/psi4conda/share/psi4/basis/aug-cc-pvdz-jkfit.gbs 
    atoms 2, 5, 7, 9, 11-12 entry H          line    70 file /home/xy3866/psi4conda/share/psi4/basis/aug-cc-pvdz-jkfit.gbs 
    atoms 3-4               entry O          line   270 file /home/xy3866/psi4conda/share/psi4/basis/aug-cc-pvdz-jkfit.gbs 
    atoms 8, 10             entry N          line   212 file /home/xy3866/psi4conda/share/psi4/basis/aug-cc-pvdz-jkfit.gbs 

  ==> Pre-Iterations <==

   -------------------------------------------------------
    Irrep   Nso     Nmo     Nalpha   Nbeta   Ndocc  Nsocc
   -------------------------------------------------------
     A        192     192       0       0       0       0
   -------------------------------------------------------
    Total     192     192      24      24      24       0
   -------------------------------------------------------

  ==> Integral Setup <==

  ==> DiskDFJK: Density-Fitted J/K Matrices <==

    J tasked:                  Yes
    K tasked:                  Yes
    wK tasked:                  No
    OpenMP threads:              4
    Integrals threads:           4
    Memory [MiB]:            22888
    Algorithm:                Core
    Integral Cache:           SAVE
    Schwarz Cutoff:          1E-12
    Fitting Condition:       1E-10

   => Auxiliary Basis Set <=

  Basis Set: (AUG-CC-PVDZ AUX)
    Blend: AUG-CC-PVDZ-JKFIT
    Number of shells: 240
    Number of basis function: 708
    Number of Cartesian functions: 816
    Spherical Harmonics?: true
    Max angular momentum: 3

  Minimum eigenvalue in the overlap matrix is 1.3693659749E-04.
  Using Symmetric Orthogonalization.

  SCF Guess: Superposition of Atomic Densities via on-the-fly atomic UHF.

  ==> Iterations <==

                           Total Energy        Delta E     RMS |[F,P]|

   @DF-RHF iter SAD:  -336.54106052636956   -3.36541e+02   0.00000e+00 
   @DF-RHF iter   1:  -337.71094264448129   -1.16988e+00   3.60701e-03 DIIS
   @DF-RHF iter   2:  -337.86140540729951   -1.50463e-01   2.12776e-03 DIIS
   @DF-RHF iter   3:  -337.92469176443035   -6.32864e-02   3.12906e-04 DIIS
   @DF-RHF iter   4:  -337.92692322549698   -2.23146e-03   1.45967e-04 DIIS
   @DF-RHF iter   5:  -337.92734420233148   -4.20977e-04   3.20545e-05 DIIS
   @DF-RHF iter   6:  -337.92739345994147   -4.92576e-05   1.63536e-05 DIIS
   @DF-RHF iter   7:  -337.92740618302741   -1.27231e-05   5.96587e-06 DIIS
   @DF-RHF iter   8:  -337.92740815654838   -1.97352e-06   2.23640e-06 DIIS
   @DF-RHF iter   9:  -337.92740841025216   -2.53704e-07   8.13146e-07 DIIS
   @DF-RHF iter  10:  -337.92740844123193   -3.09798e-08   2.95294e-07 DIIS
   @DF-RHF iter  11:  -337.92740844455864   -3.32670e-09   9.44775e-08 DIIS
   @DF-RHF iter  12:  -337.92740844488731   -3.28669e-10   3.01646e-08 DIIS
   @DF-RHF iter  13:  -337.92740844491357   -2.62617e-11   7.79231e-09 DIIS
  Energy and wave function converged.


  ==> Post-Iterations <==

    Orbital Energies [Eh]
    ---------------------

    Doubly Occupied:                                                      

       1A    -20.597958     2A    -20.554466     3A    -15.588615  
       4A    -15.548480     5A    -11.387466     6A    -11.342384  
       7A     -1.450424     8A     -1.351730     9A     -1.275127  
      10A     -1.156128    11A     -0.874216    12A     -0.839893  
      13A     -0.760487    14A     -0.708532    15A     -0.698308  
      16A     -0.648089    17A     -0.631502    18A     -0.610820  
      19A     -0.571830    20A     -0.540318    21A     -0.468153  
      22A     -0.465164    23A     -0.437436    24A     -0.374854  

    Virtual:                                                              

      25A      0.028546    26A      0.044427    27A      0.046917  
      28A      0.060913    29A      0.084286    30A      0.088437  
      31A      0.091046    32A      0.102648    33A      0.125703  
      34A      0.134487    35A      0.142973    36A      0.147965  
      37A      0.153676    38A      0.168904    39A      0.174971  
      40A      0.180701    41A      0.189386    42A      0.194404  
      43A      0.206083    44A      0.237105    45A      0.245392  
      46A      0.252259    47A      0.263956    48A      0.270858  
      49A      0.280790    50A      0.311294    51A      0.314903  
      52A      0.323167    53A      0.327089    54A      0.338726  
      55A      0.350022    56A      0.352473    57A      0.354913  
      58A      0.367427    59A      0.395353    60A      0.400616  
      61A      0.419585    62A      0.423674    63A      0.432164  
      64A      0.442553    65A      0.444784    66A      0.456649  
      67A      0.479274    68A      0.505908    69A      0.519876  
      70A      0.529079    71A      0.531499    72A      0.539825  
      73A      0.542612    74A      0.563382    75A      0.593537  
      76A      0.614594    77A      0.624779    78A      0.638079  
      79A      0.649210    80A      0.659697    81A      0.671982  
      82A      0.686931    83A      0.691042    84A      0.699834  
      85A      0.705653    86A      0.708652    87A      0.725356  
      88A      0.737830    89A      0.768308    90A      0.775713  
      91A      0.782039    92A      0.806933    93A      0.851467  
      94A      0.863589    95A      0.884142    96A      0.909199  
      97A      0.936225    98A      0.948634    99A      0.983794  
     100A      0.994145   101A      1.001130   102A      1.003387  
     103A      1.023659   104A      1.024532   105A      1.039168  
     106A      1.049851   107A      1.079243   108A      1.139860  
     109A      1.148300   110A      1.176327   111A      1.196843  
     112A      1.231184   113A      1.240181   114A      1.269136  
     115A      1.290353   116A      1.335754   117A      1.340505  
     118A      1.362517   119A      1.419413   120A      1.459851  
     121A      1.480124   122A      1.510795   123A      1.547983  
     124A      1.561054   125A      1.573537   126A      1.584858  
     127A      1.616854   128A      1.625564   129A      1.667795  
     130A      1.707720   131A      1.735087   132A      1.740594  
     133A      1.770849   134A      1.796268   135A      1.816398  
     136A      1.849726   137A      1.904433   138A      1.924634  
     139A      1.983787   140A      1.985733   141A      2.012521  
     142A      2.037393   143A      2.060261   144A      2.065923  
     145A      2.094945   146A      2.096962   147A      2.174109  
     148A      2.190273   149A      2.204099   150A      2.266872  
     151A      2.272999   152A      2.308668   153A      2.345524  
     154A      2.352705   155A      2.378149   156A      2.406664  
     157A      2.441306   158A      2.464360   159A      2.511777  
     160A      2.551160   161A      2.568695   162A      2.662492  
     163A      2.696090   164A      2.760917   165A      2.768763  
     166A      2.808227   167A      2.839731   168A      2.875217  
     169A      2.905877   170A      2.922315   171A      2.938396  
     172A      3.000812   173A      3.024271   174A      3.078865  
     175A      3.163697   176A      3.247025   177A      3.295613  
     178A      3.400521   179A      3.415316   180A      3.493796  
     181A      3.640544   182A      3.694433   183A      3.747552  
     184A      3.757948   185A      3.804502   186A      3.814656  
     187A      3.845364   188A      3.903976   189A      4.034267  
     190A      4.075920   191A      4.235487   192A      4.391002  

    Final Occupation by Irrep:
              A 
    DOCC [    24 ]

  @DF-RHF Final Energy:  -337.92740844491357

   => Energetics <=

    Nuclear Repulsion Energy =            228.9146656964739748
    One-Electron Energy =                -915.9193942419630048
    Two-Electron Energy =                 349.0773201005754345
    Total Energy =                       -337.9274084449135671

Computation Completed


Properties will be evaluated at   0.000000,   0.000000,   0.000000 [a0]

Properties computed using the SCF density matrix

  Nuclear Dipole Moment: [e a0]
     X:     4.0497      Y:    -0.1531      Z:     0.0000

  Electronic Dipole Moment: [e a0]
     X:    -2.8696      Y:     0.2362      Z:    -0.0000

  Dipole Moment: [e a0]
     X:     1.1802      Y:     0.0831      Z:     0.0000     Total:     1.1831

  Dipole Moment: [D]
     X:     2.9996      Y:     0.2112      Z:     0.0000     Total:     3.0071


*** tstop() called on g2-node38.bme.utexas.edu at Mon Sep  9 15:52:20 2019
Module time:
	user time   =      22.66 seconds =       0.38 minutes
	system time =       0.81 seconds =       0.01 minutes
	total time  =          6 seconds =       0.10 minutes
Total time:
	user time   =      22.66 seconds =       0.38 minutes
	system time =       0.81 seconds =       0.01 minutes
	total time  =          6 seconds =       0.10 minutes

  //>>>>>>>>>>>>>>>>>>>>>>>>>>>>>>>>>>>//
  //            Monomer A HF           //
  //<<<<<<<<<<<<<<<<<<<<<<<<<<<<<<<<<<<//


*** tstart() called on g2-node38.bme.utexas.edu
*** at Mon Sep  9 15:52:20 2019

   => Loading Basis Set <=

    Name: AUG-CC-PVDZ
    Role: ORBITAL
    Keyword: BASIS
    atoms 1, 6              entry C          line   178 file /home/xy3866/psi4conda/share/psi4/basis/aug-cc-pvdz.gbs 
    atoms 2, 5, 7, 9, 11-12 entry H          line    36 file /home/xy3866/psi4conda/share/psi4/basis/aug-cc-pvdz.gbs 
    atoms 3-4               entry O          line   250 file /home/xy3866/psi4conda/share/psi4/basis/aug-cc-pvdz.gbs 
    atoms 8, 10             entry N          line   214 file /home/xy3866/psi4conda/share/psi4/basis/aug-cc-pvdz.gbs 


         ---------------------------------------------------------
                                   SCF
               by Justin Turney, Rob Parrish, Andy Simmonett
                          and Daniel G. A. Smith
                              RHF Reference
                        4 Threads,  30517 MiB Core
         ---------------------------------------------------------

  ==> Geometry <==

    Molecular point group: c1
    Full point group: C1

    Geometry (in Angstrom), charge = 0, multiplicity = 1:

       Center              X                  Y                   Z               Mass       
    ------------   -----------------  -----------------  -----------------  -----------------
         C           -2.015076623678     0.158854831583    -0.000001533938    12.000000000000
         H           -3.109561623678     0.160574831583    -0.000003533938     1.007825032230
         O           -1.366667623678     1.190861831583    -0.000001533938    15.994914619570
         O           -1.547459623678    -1.068197168417     0.000002466062    15.994914619570
         H           -0.528521623678    -1.067065168417     0.000009466062     1.007825032230
      Gh(C)           2.091552476322    -0.190371368417    -0.000002533938    12.000000000000
      Gh(H)           3.173368476322    -0.312596268417    -0.000004533938     1.007825032230
      Gh(N)           1.273761476322    -1.187738368417    -0.000000533938    14.003074004430
      Gh(H)           1.784356476322    -2.061243368417    -0.000000533938     1.007825032230
      Gh(N)           1.676702476322     1.086452631583     0.000002466062    14.003074004430
      Gh(H)           0.680685476322     1.284985631583     0.000001466062     1.007825032230
      Gh(H)           2.343622476322     1.831128631583     0.000004466062     1.007825032230

  Running in c1 symmetry.

  Rotational constants: A =      0.19051  B =      0.06460  C =      0.04824 [cm^-1]
  Rotational constants: A =   5711.23674  B =   1936.79099  C =   1446.31691 [MHz]
  Nuclear repulsion =   69.995387312911120

  Charge       = 0
  Multiplicity = 1
  Electrons    = 24
  Nalpha       = 12
  Nbeta        = 12

  ==> Algorithm <==

  SCF Algorithm Type is DF.
  DIIS enabled.
  MOM disabled.
  Fractional occupation disabled.
  Guess Type is SAD.
  Energy threshold   = 1.00e-08
  Density threshold  = 1.00e-08
  Integral threshold = 0.00e+00

  ==> Primary Basis <==

  Basis Set: AUG-CC-PVDZ
    Blend: AUG-CC-PVDZ
    Number of shells: 84
    Number of basis function: 192
    Number of Cartesian functions: 204
    Spherical Harmonics?: true
    Max angular momentum: 2

   => Loading Basis Set <=

    Name: (AUG-CC-PVDZ AUX)
    Role: JKFIT
    Keyword: DF_BASIS_SCF
    atoms 1, 6              entry C          line   154 file /home/xy3866/psi4conda/share/psi4/basis/aug-cc-pvdz-jkfit.gbs 
    atoms 2, 5, 7, 9, 11-12 entry H          line    70 file /home/xy3866/psi4conda/share/psi4/basis/aug-cc-pvdz-jkfit.gbs 
    atoms 3-4               entry O          line   270 file /home/xy3866/psi4conda/share/psi4/basis/aug-cc-pvdz-jkfit.gbs 
    atoms 8, 10             entry N          line   212 file /home/xy3866/psi4conda/share/psi4/basis/aug-cc-pvdz-jkfit.gbs 

  ==> Pre-Iterations <==

   -------------------------------------------------------
    Irrep   Nso     Nmo     Nalpha   Nbeta   Ndocc  Nsocc
   -------------------------------------------------------
     A        192     192       0       0       0       0
   -------------------------------------------------------
    Total     192     192      12      12      12       0
   -------------------------------------------------------

  ==> Integral Setup <==

  ==> DiskDFJK: Density-Fitted J/K Matrices <==

    J tasked:                  Yes
    K tasked:                  Yes
    wK tasked:                  No
    OpenMP threads:              4
    Integrals threads:           4
    Memory [MiB]:            22888
    Algorithm:                Core
    Integral Cache:           LOAD
    Schwarz Cutoff:          1E-12
    Fitting Condition:       1E-10

   => Auxiliary Basis Set <=

  Basis Set: (AUG-CC-PVDZ AUX)
    Blend: AUG-CC-PVDZ-JKFIT
    Number of shells: 240
    Number of basis function: 708
    Number of Cartesian functions: 816
    Spherical Harmonics?: true
    Max angular momentum: 3

  Minimum eigenvalue in the overlap matrix is 1.3693659749E-04.
  Using Symmetric Orthogonalization.

  SCF Guess: Superposition of Atomic Densities via on-the-fly atomic UHF.

  ==> Iterations <==

                           Total Energy        Delta E     RMS |[F,P]|

   @DF-RHF iter SAD:  -187.94812541948338   -1.87948e+02   0.00000e+00 
   @DF-RHF iter   1:  -188.68373112832100   -7.35606e-01   2.63825e-03 DIIS
   @DF-RHF iter   2:  -188.74747730350282   -6.37462e-02   1.83154e-03 DIIS
   @DF-RHF iter   3:  -188.79051551778932   -4.30382e-02   2.26681e-04 DIIS
   @DF-RHF iter   4:  -188.79166670796539   -1.15119e-03   1.16066e-04 DIIS
   @DF-RHF iter   5:  -188.79194950366067   -2.82796e-04   2.78633e-05 DIIS
   @DF-RHF iter   6:  -188.79198918654225   -3.96829e-05   1.21095e-05 DIIS
   @DF-RHF iter   7:  -188.79199818208227   -8.99554e-06   4.15252e-06 DIIS
   @DF-RHF iter   8:  -188.79199909110955   -9.09027e-07   1.33390e-06 DIIS
   @DF-RHF iter   9:  -188.79199918412888   -9.30193e-08   3.58490e-07 DIIS
   @DF-RHF iter  10:  -188.79199919069080   -6.56192e-09   7.35635e-08 DIIS
   @DF-RHF iter  11:  -188.79199919094125   -2.50452e-10   1.22621e-08 DIIS
   @DF-RHF iter  12:  -188.79199919094810   -6.84963e-12   2.53308e-09 DIIS
  Energy and wave function converged.


  ==> Post-Iterations <==

    Orbital Energies [Eh]
    ---------------------

    Doubly Occupied:                                                      

       1A    -20.648089     2A    -20.571151     3A    -11.406215  
       4A     -1.482916     5A     -1.372519     6A     -0.900145  
       7A     -0.731555     8A     -0.710368     9A     -0.643203  
      10A     -0.593589    11A     -0.489492    12A     -0.468882  

    Virtual:                                                              

      13A      0.023251    14A      0.039961    15A      0.045773  
      16A      0.060512    17A      0.078916    18A      0.081768  
      19A      0.085074    20A      0.096751    21A      0.098023  
      22A      0.123115    23A      0.131167    24A      0.142618  
      25A      0.151590    26A      0.158504    27A      0.160371  
      28A      0.163856    29A      0.172180    30A      0.188927  
      31A      0.198632    32A      0.212664    33A      0.233242  
      34A      0.245708    35A      0.245931    36A      0.261083  
      37A      0.273280    38A      0.294649    39A      0.305955  
      40A      0.315407    41A      0.332867    42A      0.352626  
      43A      0.353399    44A      0.370401    45A      0.379851  
      46A      0.387125    47A      0.398378    48A      0.403780  
      49A      0.424684    50A      0.434243    51A      0.443223  
      52A      0.457052    53A      0.466218    54A      0.466363  
      55A      0.472067    56A      0.474998    57A      0.501959  
      58A      0.510292    59A      0.525093    60A      0.560245  
      61A      0.563365    62A      0.575488    63A      0.585447  
      64A      0.590844    65A      0.603356    66A      0.625300  
      67A      0.633394    68A      0.634055    69A      0.654759  
      70A      0.674932    71A      0.686650    72A      0.691510  
      73A      0.709164    74A      0.754478    75A      0.763535  
      76A      0.773207    77A      0.794426    78A      0.811381  
      79A      0.835991    80A      0.840693    81A      0.885069  
      82A      0.892396    83A      0.904628    84A      0.922300  
      85A      0.958420    86A      0.974690    87A      0.980353  
      88A      0.989002    89A      1.049633    90A      1.054402  
      91A      1.086461    92A      1.109951    93A      1.115135  
      94A      1.138144    95A      1.154872    96A      1.155223  
      97A      1.169646    98A      1.190505    99A      1.200750  
     100A      1.204720   101A      1.205667   102A      1.223029  
     103A      1.242596   104A      1.291959   105A      1.303482  
     106A      1.315501   107A      1.343245   108A      1.366952  
     109A      1.391158   110A      1.410407   111A      1.485480  
     112A      1.493266   113A      1.531021   114A      1.547682  
     115A      1.635371   116A      1.664365   117A      1.667426  
     118A      1.727602   119A      1.745236   120A      1.776569  
     121A      1.848993   122A      1.999880   123A      2.035785  
     124A      2.039286   125A      2.067587   126A      2.091169  
     127A      2.122780   128A      2.147354   129A      2.172772  
     130A      2.215228   131A      2.240301   132A      2.286002  
     133A      2.292062   134A      2.355867   135A      2.367539  
     136A      2.385074   137A      2.407212   138A      2.432554  
     139A      2.450851   140A      2.531859   141A      2.561435  
     142A      2.567164   143A      2.626258   144A      2.729107  
     145A      2.758032   146A      2.788128   147A      2.853018  
     148A      2.860718   149A      2.941455   150A      2.996899  
     151A      3.057636   152A      3.063258   153A      3.116416  
     154A      3.198822   155A      3.246115   156A      3.358996  
     157A      3.377776   158A      3.424024   159A      3.450626  
     160A      3.540158   161A      3.566581   162A      3.582828  
     163A      3.630831   164A      3.657173   165A      3.667219  
     166A      3.708387   167A      3.739051   168A      3.748369  
     169A      3.769115   170A      3.774015   171A      3.810546  
     172A      3.840926   173A      3.929663   174A      3.993330  
     175A      4.041495   176A      4.133321   177A      4.190621  
     178A      4.328787   179A      4.383293   180A      4.535213  
     181A      4.568317   182A      4.614849   183A      4.651143  
     184A      5.178295   185A      5.399135   186A      5.667568  
     187A      6.028833   188A      6.225495   189A      6.331943  
     190A     18.602923   191A     25.335087   192A     25.474490  

    Final Occupation by Irrep:
              A 
    DOCC [    12 ]

  @DF-RHF Final Energy:  -188.79199919094810

   => Energetics <=

    Nuclear Repulsion Energy =             69.9953873129111201
    One-Electron Energy =                -397.5385241049660863
    Two-Electron Energy =                 138.7511376011068478
    Total Energy =                       -188.7919991909481041

Computation Completed


Properties will be evaluated at   0.000000,   0.000000,   0.000000 [a0]

Properties computed using the SCF density matrix

  Nuclear Dipole Moment: [e a0]
     X:   -73.7779      Y:     1.9426      Z:     0.0000

  Electronic Dipole Moment: [e a0]
     X:    73.6722      Y:    -2.7716      Z:    -0.0000

  Dipole Moment: [e a0]
     X:    -0.1056      Y:    -0.8291      Z:     0.0000     Total:     0.8358

  Dipole Moment: [D]
     X:    -0.2685      Y:    -2.1073      Z:     0.0000     Total:     2.1243


*** tstop() called on g2-node38.bme.utexas.edu at Mon Sep  9 15:52:24 2019
Module time:
	user time   =      12.56 seconds =       0.21 minutes
	system time =       0.35 seconds =       0.01 minutes
	total time  =          4 seconds =       0.07 minutes
Total time:
	user time   =      35.24 seconds =       0.59 minutes
	system time =       1.16 seconds =       0.02 minutes
	total time  =         10 seconds =       0.17 minutes

  //>>>>>>>>>>>>>>>>>>>>>>>>>>>>>>>>>>>//
  //            Monomer B HF           //
  //<<<<<<<<<<<<<<<<<<<<<<<<<<<<<<<<<<<//


*** tstart() called on g2-node38.bme.utexas.edu
*** at Mon Sep  9 15:52:24 2019

   => Loading Basis Set <=

    Name: AUG-CC-PVDZ
    Role: ORBITAL
    Keyword: BASIS
    atoms 1, 6              entry C          line   178 file /home/xy3866/psi4conda/share/psi4/basis/aug-cc-pvdz.gbs 
    atoms 2, 5, 7, 9, 11-12 entry H          line    36 file /home/xy3866/psi4conda/share/psi4/basis/aug-cc-pvdz.gbs 
    atoms 3-4               entry O          line   250 file /home/xy3866/psi4conda/share/psi4/basis/aug-cc-pvdz.gbs 
    atoms 8, 10             entry N          line   214 file /home/xy3866/psi4conda/share/psi4/basis/aug-cc-pvdz.gbs 


         ---------------------------------------------------------
                                   SCF
               by Justin Turney, Rob Parrish, Andy Simmonett
                          and Daniel G. A. Smith
                              RHF Reference
                        4 Threads,  30517 MiB Core
         ---------------------------------------------------------

  ==> Geometry <==

    Molecular point group: c1
    Full point group: C1

    Geometry (in Angstrom), charge = 0, multiplicity = 1:

       Center              X                  Y                   Z               Mass       
    ------------   -----------------  -----------------  -----------------  -----------------
      Gh(C)          -2.015076623678     0.158854831583    -0.000001533938    12.000000000000
      Gh(H)          -3.109561623678     0.160574831583    -0.000003533938     1.007825032230
      Gh(O)          -1.366667623678     1.190861831583    -0.000001533938    15.994914619570
      Gh(O)          -1.547459623678    -1.068197168417     0.000002466062    15.994914619570
      Gh(H)          -0.528521623678    -1.067065168417     0.000009466062     1.007825032230
         C            2.091552476322    -0.190371368417    -0.000002533938    12.000000000000
         H            3.173368476322    -0.312596268417    -0.000004533938     1.007825032230
         N            1.273761476322    -1.187738368417    -0.000000533938    14.003074004430
         H            1.784356476322    -2.061243368417    -0.000000533938     1.007825032230
         N            1.676702476322     1.086452631583     0.000002466062    14.003074004430
         H            0.680685476322     1.284985631583     0.000001466062     1.007825032230
         H            2.343622476322     1.831128631583     0.000004466062     1.007825032230

  Running in c1 symmetry.

  Rotational constants: A =      0.19051  B =      0.06460  C =      0.04824 [cm^-1]
  Rotational constants: A =   5711.23674  B =   1936.79099  C =   1446.31691 [MHz]
  Nuclear repulsion =   72.334192857909215

  Charge       = 0
  Multiplicity = 1
  Electrons    = 24
  Nalpha       = 12
  Nbeta        = 12

  ==> Algorithm <==

  SCF Algorithm Type is DF.
  DIIS enabled.
  MOM disabled.
  Fractional occupation disabled.
  Guess Type is SAD.
  Energy threshold   = 1.00e-08
  Density threshold  = 1.00e-08
  Integral threshold = 0.00e+00

  ==> Primary Basis <==

  Basis Set: AUG-CC-PVDZ
    Blend: AUG-CC-PVDZ
    Number of shells: 84
    Number of basis function: 192
    Number of Cartesian functions: 204
    Spherical Harmonics?: true
    Max angular momentum: 2

   => Loading Basis Set <=

    Name: (AUG-CC-PVDZ AUX)
    Role: JKFIT
    Keyword: DF_BASIS_SCF
    atoms 1, 6              entry C          line   154 file /home/xy3866/psi4conda/share/psi4/basis/aug-cc-pvdz-jkfit.gbs 
    atoms 2, 5, 7, 9, 11-12 entry H          line    70 file /home/xy3866/psi4conda/share/psi4/basis/aug-cc-pvdz-jkfit.gbs 
    atoms 3-4               entry O          line   270 file /home/xy3866/psi4conda/share/psi4/basis/aug-cc-pvdz-jkfit.gbs 
    atoms 8, 10             entry N          line   212 file /home/xy3866/psi4conda/share/psi4/basis/aug-cc-pvdz-jkfit.gbs 

  ==> Pre-Iterations <==

   -------------------------------------------------------
    Irrep   Nso     Nmo     Nalpha   Nbeta   Ndocc  Nsocc
   -------------------------------------------------------
     A        192     192       0       0       0       0
   -------------------------------------------------------
    Total     192     192      12      12      12       0
   -------------------------------------------------------

  ==> Integral Setup <==

  ==> DiskDFJK: Density-Fitted J/K Matrices <==

    J tasked:                  Yes
    K tasked:                  Yes
    wK tasked:                  No
    OpenMP threads:              4
    Integrals threads:           4
    Memory [MiB]:            22888
    Algorithm:                Core
    Integral Cache:           LOAD
    Schwarz Cutoff:          1E-12
    Fitting Condition:       1E-10

   => Auxiliary Basis Set <=

  Basis Set: (AUG-CC-PVDZ AUX)
    Blend: AUG-CC-PVDZ-JKFIT
    Number of shells: 240
    Number of basis function: 708
    Number of Cartesian functions: 816
    Spherical Harmonics?: true
    Max angular momentum: 3

  Minimum eigenvalue in the overlap matrix is 1.3693659749E-04.
  Using Symmetric Orthogonalization.

  SCF Guess: Superposition of Atomic Densities via on-the-fly atomic UHF.

  ==> Iterations <==

                           Total Energy        Delta E     RMS |[F,P]|

   @DF-RHF iter SAD:  -148.37469756562660   -1.48375e+02   0.00000e+00 
   @DF-RHF iter   1:  -148.96392165388656   -5.89224e-01   2.77662e-03 DIIS
   @DF-RHF iter   2:  -149.06660637399750   -1.02685e-01   1.59994e-03 DIIS
   @DF-RHF iter   3:  -149.10734189457318   -4.07355e-02   2.30945e-04 DIIS
   @DF-RHF iter   4:  -149.10873601137118   -1.39412e-03   1.11415e-04 DIIS
   @DF-RHF iter   5:  -149.10900233743854   -2.66326e-04   2.02523e-05 DIIS
   @DF-RHF iter   6:  -149.10902947392202   -2.71365e-05   9.60451e-06 DIIS
   @DF-RHF iter   7:  -149.10903385960248   -4.38568e-06   3.79191e-06 DIIS
   @DF-RHF iter   8:  -149.10903470382382   -8.44221e-07   1.07149e-06 DIIS
   @DF-RHF iter   9:  -149.10903477327645   -6.94526e-08   3.16060e-07 DIIS
   @DF-RHF iter  10:  -149.10903477892285   -5.64640e-09   7.38926e-08 DIIS
   @DF-RHF iter  11:  -149.10903477924279   -3.19943e-10   1.33192e-08 DIIS
   @DF-RHF iter  12:  -149.10903477925314   -1.03455e-11   2.39649e-09 DIIS
  Energy and wave function converged.


  ==> Post-Iterations <==

    Orbital Energies [Eh]
    ---------------------

    Doubly Occupied:                                                      

       1A    -15.588178     2A    -15.527628     3A    -11.322328  
       4A     -1.263858     5A     -1.138709     6A     -0.831996  
       7A     -0.750068     8A     -0.640871     9A     -0.618620  
      10A     -0.530072    11A     -0.417147    12A     -0.357682  

    Virtual:                                                              

      13A      0.028444    14A      0.037473    15A      0.045441  
      16A      0.062056    17A      0.073549    18A      0.087997  
      19A      0.091096    20A      0.104314    21A      0.114296  
      22A      0.126969    23A      0.134433    24A      0.143645  
      25A      0.160230    26A      0.168433    27A      0.168843  
      28A      0.178587    29A      0.183761    30A      0.203437  
      31A      0.215962    32A      0.229859    33A      0.233565  
      34A      0.242881    35A      0.247615    36A      0.257577  
      37A      0.279796    38A      0.283701    39A      0.294409  
      40A      0.311187    41A      0.324061    42A      0.341996  
      43A      0.347588    44A      0.355764    45A      0.362511  
      46A      0.380824    47A      0.398932    48A      0.418822  
      49A      0.427666    50A      0.435188    51A      0.456838  
      52A      0.457697    53A      0.462938    54A      0.479464  
      55A      0.517623    56A      0.522041    57A      0.534158  
      58A      0.541677    59A      0.551334    60A      0.554278  
      61A      0.558271    62A      0.583903    63A      0.615708  
      64A      0.622555    65A      0.630883    66A      0.634613  
      67A      0.650847    68A      0.666089    69A      0.667355  
      70A      0.683806    71A      0.699153    72A      0.701264  
      73A      0.701751    74A      0.717059    75A      0.747502  
      76A      0.760855    77A      0.778002    78A      0.791826  
      79A      0.807191    80A      0.817625    81A      0.855696  
      82A      0.870393    83A      0.895898    84A      0.909687  
      85A      0.947517    86A      0.968988    87A      0.984732  
      88A      1.003879    89A      1.010005    90A      1.030561  
      91A      1.045841    92A      1.050252    93A      1.055278  
      94A      1.104162    95A      1.106288    96A      1.149487  
      97A      1.198426    98A      1.236447    99A      1.254134  
     100A      1.281632   101A      1.308663   102A      1.344193  
     103A      1.381928   104A      1.385295   105A      1.417314  
     106A      1.428804   107A      1.462012   108A      1.467976  
     109A      1.478059   110A      1.484809   111A      1.496041  
     112A      1.529703   113A      1.576547   114A      1.578457  
     115A      1.606286   116A      1.607253   117A      1.643419  
     118A      1.646521   119A      1.667044   120A      1.711179  
     121A      1.770600   122A      1.816883   123A      1.818324  
     124A      1.877197   125A      1.942700   126A      1.987258  
     127A      2.006225   128A      2.037982   129A      2.106782  
     130A      2.112239   131A      2.156468   132A      2.220541  
     133A      2.253869   134A      2.277588   135A      2.329746  
     136A      2.354010   137A      2.378071   138A      2.397324  
     139A      2.433884   140A      2.479707   141A      2.489755  
     142A      2.510858   143A      2.528431   144A      2.562865  
     145A      2.629553   146A      2.669041   147A      2.687052  
     148A      2.758666   149A      2.760724   150A      2.775437  
     151A      2.809578   152A      2.856597   153A      2.858882  
     154A      2.892100   155A      2.935140   156A      2.956317  
     157A      3.014570   158A      3.069473   159A      3.162332  
     160A      3.213154   161A      3.265532   162A      3.318025  
     163A      3.340168   164A      3.427684   165A      3.462607  
     166A      3.526259   167A      3.648460   168A      3.794572  
     169A      3.924024   170A      4.104842   171A      4.440528  
     172A      4.598840   173A      4.847522   174A      4.945557  
     175A      4.986443   176A      5.010812   177A      5.024893  
     178A      5.070005   179A      5.117497   180A      5.306361  
     181A      5.572838   182A      5.736348   183A      5.806129  
     184A      5.912846   185A      5.979072   186A      6.224693  
     187A      6.620120   188A      6.972046   189A      7.128672  
     190A     18.605417   191A     33.522980   192A     33.608747  

    Final Occupation by Irrep:
              A 
    DOCC [    12 ]

  @DF-RHF Final Energy:  -149.10903477925314

   => Energetics <=

    Nuclear Repulsion Energy =             72.3341928579092155
    One-Electron Energy =                -344.9121423948009806
    Two-Electron Energy =                 123.4689147576386290
    Total Energy =                       -149.1090347792531361

Computation Completed


Properties will be evaluated at   0.000000,   0.000000,   0.000000 [a0]

Properties computed using the SCF density matrix

  Nuclear Dipole Moment: [e a0]
     X:    77.8276      Y:    -2.0956      Z:    -0.0000

  Electronic Dipole Moment: [e a0]
     X:   -76.9115      Y:     2.9838      Z:     0.0000

  Dipole Moment: [e a0]
     X:     0.9161      Y:     0.8882      Z:    -0.0000     Total:     1.2760

  Dipole Moment: [D]
     X:     2.3285      Y:     2.2576      Z:    -0.0000     Total:     3.2433


*** tstop() called on g2-node38.bme.utexas.edu at Mon Sep  9 15:52:40 2019
Module time:
	user time   =      13.86 seconds =       0.23 minutes
	system time =       0.39 seconds =       0.01 minutes
	total time  =         16 seconds =       0.27 minutes
Total time:
	user time   =      49.12 seconds =       0.82 minutes
	system time =       1.55 seconds =       0.03 minutes
	total time  =         26 seconds =       0.43 minutes
  Constructing Basis Sets for SAPT...

   => Loading Basis Set <=

    Name: (AUG-CC-PVDZ AUX)
    Role: RIFIT
    Keyword: DF_BASIS_SAPT
    atoms 1, 6              entry C          line   112 file /home/xy3866/psi4conda/share/psi4/basis/aug-cc-pvdz-ri.gbs 
    atoms 2, 5, 7, 9, 11-12 entry H          line    30 file /home/xy3866/psi4conda/share/psi4/basis/aug-cc-pvdz-ri.gbs 
    atoms 3-4               entry O          line   204 file /home/xy3866/psi4conda/share/psi4/basis/aug-cc-pvdz-ri.gbs 
    atoms 8, 10             entry N          line   158 file /home/xy3866/psi4conda/share/psi4/basis/aug-cc-pvdz-ri.gbs 


  //>>>>>>>>>>>>>>>>>>>>>>>>>>>>>>>>>>>//
  //               SAPT2+              //
  //<<<<<<<<<<<<<<<<<<<<<<<<<<<<<<<<<<<//


*** tstart() called on g2-node38.bme.utexas.edu
*** at Mon Sep  9 15:52:40 2019

        SAPT2+  
    Ed Hohenstein
     6 June 2009

      Orbital Information
  --------------------------
    NSO        =       192
    NMO        =       192
    NRI        =       570
    NOCC A     =        12
    NOCC B     =        12
    FOCC A     =         3
    FOCC B     =         3
    NVIR A     =       180
    NVIR B     =       180

    Estimated memory usage: 259.7 MB

    Natural Orbital Cutoff:   1.000E-06
    Disp(T3) Truncation:            Yes
    CCD (vv|vv) Truncation:         Yes
    MBPT T2 Truncation:             Yes

    Monomer A: 99 virtual orbitals dropped
    Monomer B: 84 virtual orbitals dropped

    Elst10,r            =    -0.044180813139 [Eh]
    Exch10 (S^2)        =     0.036163787067 [Eh]
    Exch10              =     0.036769424893 [Eh]
    Ind20,r (A<-B)      =    -0.006139443798 [Eh]
    Ind20,r (B<-A)      =    -0.015521696776 [Eh]
    Ind20,r             =    -0.021661140575 [Eh]
    Exch-Ind20,r (A<-B) =     0.002649423620 [Eh]
    Exch-Ind20,r (B<-A) =     0.007959137617 [Eh]
    Exch-Ind20,r        =     0.010608561237 [Eh]
    Disp20              =    -0.012113855704 [Eh]
    Disp20 (NO)         =    -0.010963922966 [Eh]
    Exch-Disp20         =     0.002330176120 [Eh]
    Elst12,r            =     0.001030969956 [Eh]
    Exch11              =     0.000119421513 [Eh]
    Exch12              =     0.005975693367 [Eh]
    Ind22               =    -0.002857299725 [Eh]
    Disp21              =     0.001074638631 [Eh]
    Disp22 (SDQ)        =    -0.000577510806 [Eh]

    (i =   1 of   9)          2 seconds
    (i =   2 of   9)          5 seconds
    (i =   3 of   9)          7 seconds
    (i =   4 of   9)         10 seconds
    (i =   5 of   9)         12 seconds
    (i =   6 of   9)         15 seconds
    (i =   7 of   9)         17 seconds
    (i =   8 of   9)         19 seconds
    (i =   9 of   9)         21 seconds

    Disp220 (T)         =    -0.001067920241 [Eh]

    (i =   1 of   9)          3 seconds
    (i =   2 of   9)          6 seconds
    (i =   3 of   9)          8 seconds
    (i =   4 of   9)         11 seconds
    (i =   5 of   9)         14 seconds
    (i =   6 of   9)         16 seconds
    (i =   7 of   9)         19 seconds
    (i =   8 of   9)         21 seconds
    (i =   9 of   9)         24 seconds

    Disp202 (T)         =    -0.000876410716 [Eh]

    Disp22 (T)          =    -0.001944330957 [Eh]

    Est. Disp220 (T)    =    -0.001179927271 [Eh]
    Est. Disp202 (T)    =    -0.000968331589 [Eh]

    Est. Disp22 (T)     =    -0.002148258860 [Eh]

    SAPT Results 
  --------------------------------------------------------------------------------------------------------
    Electrostatics                -43.14984318 [mEh]     -27.07693539 [kcal/mol]    -113.28989767 [kJ/mol]
      Elst10,r                    -44.18081314 [mEh]     -27.72387880 [kcal/mol]    -115.99670891 [kJ/mol]
      Elst12,r                      1.03096996 [mEh]       0.64694341 [kcal/mol]       2.70681125 [kJ/mol]

    Exchange                       42.86453977 [mEh]      26.89790480 [kcal/mol]     112.54083367 [kJ/mol]
      Exch10                       36.76942489 [mEh]      23.07316247 [kcal/mol]      96.53811176 [kJ/mol]
      Exch10(S^2)                  36.16378707 [mEh]      22.69311899 [kcal/mol]      94.94800986 [kJ/mol]
      Exch11(S^2)                   0.11942151 [mEh]       0.07493813 [kcal/mol]       0.31354114 [kJ/mol]
      Exch12(S^2)                   5.97569337 [mEh]       3.74980420 [kcal/mol]      15.68918077 [kJ/mol]

    Induction                     -20.42102132 [mEh]     -12.81438435 [kcal/mol]     -53.61538410 [kJ/mol]
      Ind20,r                     -21.66114057 [mEh]     -13.59257092 [kcal/mol]     -56.87131674 [kJ/mol]
      Ind22                        -2.85729973 [mEh]      -1.79298265 [kcal/mol]      -7.50183940 [kJ/mol]
      Exch-Ind20,r                 10.60856124 [mEh]       6.65697268 [kcal/mol]      27.85277369 [kJ/mol]
      Exch-Ind22                    1.39936487 [mEh]       0.87811471 [kcal/mol]       3.67403195 [kJ/mol]
      delta HF,r (2)               -7.91050713 [mEh]      -4.96391817 [kcal/mol]     -20.76903361 [kJ/mol]

    Dispersion                    -11.43481062 [mEh]      -7.17545199 [kcal/mol]     -30.02209114 [kJ/mol]
      Disp20                      -12.11385570 [mEh]      -7.60155922 [kcal/mol]     -31.80492377 [kJ/mol]
      Disp21                        1.07463863 [mEh]       0.67434592 [kcal/mol]       2.82146334 [kJ/mol]
      Disp22 (SDQ)                 -0.57751081 [mEh]      -0.36239350 [kcal/mol]      -1.51625441 [kJ/mol]
      Disp22 (T)                   -1.94433096 [mEh]      -1.22008610 [kcal/mol]      -5.10484022 [kJ/mol]
      Est. Disp22 (T)              -2.14825886 [mEh]      -1.34805279 [kcal/mol]      -5.64025286 [kJ/mol]
      Exch-Disp20                   2.33017612 [mEh]       1.46220759 [kcal/mol]       6.11787656 [kJ/mol]

  Total HF                        -26.37447471 [mEh]     -16.55023275 [kcal/mol]     -69.24617382 [kJ/mol]
  Total SAPT0                     -36.15815430 [mEh]     -22.68958438 [kcal/mol]     -94.93322103 [kJ/mol]
  Total SAPT2                     -30.49000432 [mEh]     -19.13276657 [kcal/mol]     -80.05149531 [kJ/mol]
  Total SAPT2+                    -32.14113535 [mEh]     -20.16886693 [kcal/mol]     -84.38653924 [kJ/mol]

  Special recipe for scaled SAPT0 (see Manual):
    Electrostatics sSAPT0         -44.18081314 [mEh]     -27.72387880 [kcal/mol]    -115.99670891 [kJ/mol]
    Exchange sSAPT0                36.76942489 [mEh]      23.07316247 [kcal/mol]      96.53811176 [kJ/mol]
    Induction sSAPT0              -18.42112339 [mEh]     -11.55942945 [kcal/mol]     -48.36465281 [kJ/mol]
    Dispersion sSAPT0              -9.66463711 [mEh]      -6.06465135 [kcal/mol]     -25.37450123 [kJ/mol]
  Total sSAPT0                    -35.49714875 [mEh]     -22.27479713 [kcal/mol]     -93.19775120 [kJ/mol]
  --------------------------------------------------------------------------------------------------------

*** tstop() called on g2-node38.bme.utexas.edu at Mon Sep  9 15:54:10 2019
Module time:
	user time   =     291.52 seconds =       4.86 minutes
	system time =      10.34 seconds =       0.17 minutes
	total time  =         90 seconds =       1.50 minutes
Total time:
	user time   =     341.11 seconds =       5.69 minutes
	system time =      11.91 seconds =       0.20 minutes
	total time  =        116 seconds =       1.93 minutes

    Psi4 stopped on: Monday, 09 September 2019 03:54PM
    Psi4 wall time for execution: 0:01:56.83

*** Psi4 exiting successfully. Buy a developer a beer!
