
    -----------------------------------------------------------------------
          Psi4: An Open-Source Ab Initio Electronic Structure Package
                               Psi4 1.3.2 release

                         Git: Rev {HEAD} ecbda83 


    R. M. Parrish, L. A. Burns, D. G. A. Smith, A. C. Simmonett,
    A. E. DePrince III, E. G. Hohenstein, U. Bozkaya, A. Yu. Sokolov,
    R. Di Remigio, R. M. Richard, J. F. Gonthier, A. M. James,
    H. R. McAlexander, A. Kumar, M. Saitow, X. Wang, B. P. Pritchard,
    P. Verma, H. F. Schaefer III, K. Patkowski, R. A. King, E. F. Valeev,
    F. A. Evangelista, J. M. Turney, T. D. Crawford, and C. D. Sherrill,
    J. Chem. Theory Comput. 13(7) pp 3185--3197 (2017).
    (doi: 10.1021/acs.jctc.7b00174)


                         Additional Contributions by
    P. Kraus, H. Kruse, M. H. Lechner, M. C. Schieber, R. A. Shaw,
    A. Alenaizan, R. Galvelis, Z. L. Glick, S. Lehtola, and J. P. Misiewicz

    -----------------------------------------------------------------------


    Psi4 started on: Monday, 09 September 2019 08:57PM

    Process ID: 94646
    Host:       node51.bme.utexas.edu
    PSIDATADIR: /home/xy3866/psi4conda/share/psi4
    Memory:     500.0 MiB
    Threads:    4
    
  ==> Input File <==

--------------------------------------------------------------------------
#psi4
#
memory 32 gb

molecule  {
0 1
  C        2.0083120    -0.3372920     0.0000040
  H        3.1030340    -0.4288200    -0.0000030
  O        1.2864570    -1.3299810     0.0000000
  N        1.5810970     0.9343630     0.0000010
  H        0.5827550     1.1459700     0.0000010
  H        2.1087903     1.6984599    -0.0000030
--
0 1
  C       -2.1516897     0.3570729     0.0000010
  H       -3.2464117     0.4486009    -0.0000010
  O       -1.4298347     1.3497619    -0.0000000
  N       -1.7244747    -0.9145821    -0.0000000
  H       -0.7261327    -1.1261891    -0.0000000
  H       -2.3955457    -1.6588981    -0.0000010
units angstrom
no_reorient  #important for SAPT in psi4, default
symmetry c1  #important for SAPT in psi4, default
}

set {
basis aug-cc-pVDZ
scf_type DF
freeze_core True
}
energy('sapt2+')
--------------------------------------------------------------------------

  Memory set to  29.802 GiB by Python driver.

  //>>>>>>>>>>>>>>>>>>>>>>>>>>>>>>>>>>>//
  //              Dimer HF             //
  //<<<<<<<<<<<<<<<<<<<<<<<<<<<<<<<<<<<//


*** tstart() called on node51.bme.utexas.edu
*** at Mon Sep  9 20:57:31 2019

   => Loading Basis Set <=

    Name: AUG-CC-PVDZ
    Role: ORBITAL
    Keyword: BASIS
    atoms 1, 7             entry C          line   178 file /home/xy3866/psi4conda/share/psi4/basis/aug-cc-pvdz.gbs 
    atoms 2, 5-6, 8, 11-12 entry H          line    36 file /home/xy3866/psi4conda/share/psi4/basis/aug-cc-pvdz.gbs 
    atoms 3, 9             entry O          line   250 file /home/xy3866/psi4conda/share/psi4/basis/aug-cc-pvdz.gbs 
    atoms 4, 10            entry N          line   214 file /home/xy3866/psi4conda/share/psi4/basis/aug-cc-pvdz.gbs 


         ---------------------------------------------------------
                                   SCF
               by Justin Turney, Rob Parrish, Andy Simmonett
                          and Daniel G. A. Smith
                              RHF Reference
                        4 Threads,  30517 MiB Core
         ---------------------------------------------------------

  ==> Geometry <==

    Molecular point group: c1
    Full point group: C1

    Geometry (in Angstrom), charge = 0, multiplicity = 1:

       Center              X                  Y                   Z               Mass       
    ------------   -----------------  -----------------  -----------------  -----------------
         C            2.081605636064    -0.347403852022     0.000003256485    12.000000000000
         H            3.176327636064    -0.438931852022    -0.000003743515     1.007825032230
         O            1.359750636064    -1.340092852022    -0.000000743515    15.994914619570
         N            1.654390636064     0.924251147978     0.000000256485    14.003074004430
         H            0.656048636064     1.135858147978     0.000000256485     1.007825032230
         H            2.182083936064     1.688348047978    -0.000003743515     1.007825032230
         C           -2.078396063936     0.346961047978     0.000000256485    12.000000000000
         H           -3.173118063936     0.438489047978    -0.000001743515     1.007825032230
         O           -1.356541063936     1.339650047978    -0.000000743515    15.994914619570
         N           -1.651181063936    -0.924693952022    -0.000000743515    14.003074004430
         H           -0.652839063936    -1.136300952022    -0.000000743515     1.007825032230
         H           -2.322252063936    -1.669009952022    -0.000001743515     1.007825032230

  Running in c1 symmetry.

  Rotational constants: A =      0.18924  B =      0.06139  C =      0.04635 [cm^-1]
  Rotational constants: A =   5673.34941  B =   1840.37514  C =   1389.60261 [MHz]
  Nuclear repulsion =  227.097398506630469

  Charge       = 0
  Multiplicity = 1
  Electrons    = 48
  Nalpha       = 24
  Nbeta        = 24

  ==> Algorithm <==

  SCF Algorithm Type is DF.
  DIIS enabled.
  MOM disabled.
  Fractional occupation disabled.
  Guess Type is SAD.
  Energy threshold   = 1.00e-08
  Density threshold  = 1.00e-08
  Integral threshold = 0.00e+00

  ==> Primary Basis <==

  Basis Set: AUG-CC-PVDZ
    Blend: AUG-CC-PVDZ
    Number of shells: 84
    Number of basis function: 192
    Number of Cartesian functions: 204
    Spherical Harmonics?: true
    Max angular momentum: 2

   => Loading Basis Set <=

    Name: (AUG-CC-PVDZ AUX)
    Role: JKFIT
    Keyword: DF_BASIS_SCF
    atoms 1, 7             entry C          line   154 file /home/xy3866/psi4conda/share/psi4/basis/aug-cc-pvdz-jkfit.gbs 
    atoms 2, 5-6, 8, 11-12 entry H          line    70 file /home/xy3866/psi4conda/share/psi4/basis/aug-cc-pvdz-jkfit.gbs 
    atoms 3, 9             entry O          line   270 file /home/xy3866/psi4conda/share/psi4/basis/aug-cc-pvdz-jkfit.gbs 
    atoms 4, 10            entry N          line   212 file /home/xy3866/psi4conda/share/psi4/basis/aug-cc-pvdz-jkfit.gbs 

  ==> Pre-Iterations <==

   -------------------------------------------------------
    Irrep   Nso     Nmo     Nalpha   Nbeta   Ndocc  Nsocc
   -------------------------------------------------------
     A        192     192       0       0       0       0
   -------------------------------------------------------
    Total     192     192      24      24      24       0
   -------------------------------------------------------

  ==> Integral Setup <==

  ==> DiskDFJK: Density-Fitted J/K Matrices <==

    J tasked:                  Yes
    K tasked:                  Yes
    wK tasked:                  No
    OpenMP threads:              4
    Integrals threads:           4
    Memory [MiB]:            22888
    Algorithm:                Core
    Integral Cache:           SAVE
    Schwarz Cutoff:          1E-12
    Fitting Condition:       1E-10

   => Auxiliary Basis Set <=

  Basis Set: (AUG-CC-PVDZ AUX)
    Blend: AUG-CC-PVDZ-JKFIT
    Number of shells: 240
    Number of basis function: 708
    Number of Cartesian functions: 816
    Spherical Harmonics?: true
    Max angular momentum: 3

  Minimum eigenvalue in the overlap matrix is 2.3429863394E-04.
  Using Symmetric Orthogonalization.

  SCF Guess: Superposition of Atomic Densities via on-the-fly atomic UHF.

  ==> Iterations <==

                           Total Energy        Delta E     RMS |[F,P]|

   @DF-RHF iter SAD:  -336.54199410727472   -3.36542e+02   0.00000e+00 
   @DF-RHF iter   1:  -337.71942839160835   -1.17743e+00   3.66327e-03 DIIS
   @DF-RHF iter   2:  -337.86909149916283   -1.49663e-01   2.22769e-03 DIIS
   @DF-RHF iter   3:  -337.93510097369006   -6.60095e-02   3.53360e-04 DIIS
   @DF-RHF iter   4:  -337.93752201317290   -2.42104e-03   1.46909e-04 DIIS
   @DF-RHF iter   5:  -337.93797794313741   -4.55930e-04   2.74763e-05 DIIS
   @DF-RHF iter   6:  -337.93801742115915   -3.94780e-05   1.32160e-05 DIIS
   @DF-RHF iter   7:  -337.93802621368582   -8.79253e-06   5.01829e-06 DIIS
   @DF-RHF iter   8:  -337.93802780509805   -1.59141e-06   1.60725e-06 DIIS
   @DF-RHF iter   9:  -337.93802795008622   -1.44988e-07   5.26973e-07 DIIS
   @DF-RHF iter  10:  -337.93802796097225   -1.08860e-08   2.48479e-07 DIIS
   @DF-RHF iter  11:  -337.93802796300525   -2.03300e-09   6.95618e-08 DIIS
   @DF-RHF iter  12:  -337.93802796317431   -1.69052e-10   1.91036e-08 DIIS
   @DF-RHF iter  13:  -337.93802796318460   -1.02887e-11   5.50960e-09 DIIS
  Energy and wave function converged.


  ==> Post-Iterations <==

    Orbital Energies [Eh]
    ---------------------

    Doubly Occupied:                                                      

       1A    -20.542427     2A    -20.540474     3A    -15.592840  
       4A    -15.585041     5A    -11.369790     6A    -11.366631  
       7A     -1.389690     8A     -1.386190     9A     -1.229116  
      10A     -1.218704    11A     -0.866540    12A     -0.846449  
      13A     -0.762777    14A     -0.746602    15A     -0.696455  
      16A     -0.653385    17A     -0.617202    18A     -0.598490  
      19A     -0.574098    20A     -0.568288    21A     -0.451940  
      22A     -0.431489    23A     -0.421126    24A     -0.413518  

    Virtual:                                                              

      25A      0.033355    26A      0.036397    27A      0.052324  
      28A      0.058605    29A      0.074978    30A      0.092343  
      31A      0.102334    32A      0.103109    33A      0.117003  
      34A      0.125582    35A      0.151097    36A      0.154392  
      37A      0.164111    38A      0.167281    39A      0.173638  
      40A      0.180528    41A      0.187627    42A      0.191450  
      43A      0.194537    44A      0.221568    45A      0.232125  
      46A      0.250296    47A      0.271106    48A      0.279917  
      49A      0.281683    50A      0.303327    51A      0.318557  
      52A      0.319923    53A      0.325404    54A      0.339738  
      55A      0.342735    56A      0.357537    57A      0.368475  
      58A      0.369584    59A      0.388581    60A      0.394432  
      61A      0.412006    62A      0.425436    63A      0.431752  
      64A      0.432366    65A      0.455086    66A      0.463192  
      67A      0.487973    68A      0.506486    69A      0.506567  
      70A      0.510261    71A      0.531237    72A      0.535746  
      73A      0.537611    74A      0.567411    75A      0.584349  
      76A      0.610186    77A      0.630739    78A      0.632899  
      79A      0.647967    80A      0.671917    81A      0.674928  
      82A      0.682535    83A      0.683718    84A      0.703666  
      85A      0.708468    86A      0.709806    87A      0.712672  
      88A      0.744186    89A      0.763716    90A      0.775465  
      91A      0.793685    92A      0.801725    93A      0.809346  
      94A      0.835777    95A      0.836610    96A      0.839189  
      97A      0.922092    98A      0.965686    99A      0.993282  
     100A      0.996610   101A      1.000121   102A      1.005692  
     103A      1.011298   104A      1.026181   105A      1.041188  
     106A      1.054817   107A      1.068139   108A      1.099488  
     109A      1.129025   110A      1.219029   111A      1.223002  
     112A      1.248674   113A      1.252186   114A      1.298444  
     115A      1.299825   116A      1.319513   117A      1.339885  
     118A      1.417701   119A      1.434630   120A      1.472246  
     121A      1.486942   122A      1.492653   123A      1.515412  
     124A      1.549222   125A      1.562357   126A      1.589455  
     127A      1.620446   128A      1.635170   129A      1.667947  
     130A      1.700990   131A      1.722730   132A      1.734736  
     133A      1.735986   134A      1.764702   135A      1.910780  
     136A      1.916177   137A      1.918270   138A      1.944352  
     139A      1.973944   140A      2.003175   141A      2.029701  
     142A      2.040144   143A      2.048731   144A      2.073369  
     145A      2.093981   146A      2.096073   147A      2.123025  
     148A      2.153655   149A      2.246977   150A      2.263393  
     151A      2.306835   152A      2.315526   153A      2.325133  
     154A      2.344198   155A      2.373109   156A      2.392820  
     157A      2.404502   158A      2.433274   159A      2.462619  
     160A      2.487854   161A      2.576612   162A      2.597305  
     163A      2.655599   164A      2.698875   165A      2.791655  
     166A      2.810201   167A      2.811495   168A      2.833133  
     169A      2.836125   170A      2.868905   171A      2.939501  
     172A      2.970772   173A      3.009631   174A      3.072219  
     175A      3.187621   176A      3.267494   177A      3.380580  
     178A      3.415556   179A      3.494037   180A      3.532425  
     181A      3.668979   182A      3.746129   183A      3.766948  
     184A      3.782774   185A      3.802408   186A      3.804941  
     187A      3.932499   188A      3.985917   189A      4.122073  
     190A      4.126186   191A      4.245813   192A      4.273497  

    Final Occupation by Irrep:
              A 
    DOCC [    24 ]

  @DF-RHF Final Energy:  -337.93802796318460

   => Energetics <=

    Nuclear Repulsion Energy =            227.0973985066304692
    One-Electron Energy =                -912.3323305870326294
    Two-Electron Energy =                 347.2969041172175366
    Total Energy =                       -337.9380279631845951

Computation Completed


Properties will be evaluated at   0.000000,   0.000000,   0.000000 [a0]

Properties computed using the SCF density matrix

  Nuclear Dipole Moment: [e a0]
     X:    -0.1254      Y:     0.0173      Z:    -0.0000

  Electronic Dipole Moment: [e a0]
     X:     0.0889      Y:    -0.0170      Z:     0.0000

  Dipole Moment: [e a0]
     X:    -0.0365      Y:     0.0003      Z:    -0.0000     Total:     0.0365

  Dipole Moment: [D]
     X:    -0.0928      Y:     0.0007      Z:    -0.0000     Total:     0.0928


*** tstop() called on node51.bme.utexas.edu at Mon Sep  9 20:57:36 2019
Module time:
	user time   =      17.05 seconds =       0.28 minutes
	system time =       0.47 seconds =       0.01 minutes
	total time  =          5 seconds =       0.08 minutes
Total time:
	user time   =      17.05 seconds =       0.28 minutes
	system time =       0.47 seconds =       0.01 minutes
	total time  =          5 seconds =       0.08 minutes

  //>>>>>>>>>>>>>>>>>>>>>>>>>>>>>>>>>>>//
  //            Monomer A HF           //
  //<<<<<<<<<<<<<<<<<<<<<<<<<<<<<<<<<<<//


*** tstart() called on node51.bme.utexas.edu
*** at Mon Sep  9 20:57:36 2019

   => Loading Basis Set <=

    Name: AUG-CC-PVDZ
    Role: ORBITAL
    Keyword: BASIS
    atoms 1, 7             entry C          line   178 file /home/xy3866/psi4conda/share/psi4/basis/aug-cc-pvdz.gbs 
    atoms 2, 5-6, 8, 11-12 entry H          line    36 file /home/xy3866/psi4conda/share/psi4/basis/aug-cc-pvdz.gbs 
    atoms 3, 9             entry O          line   250 file /home/xy3866/psi4conda/share/psi4/basis/aug-cc-pvdz.gbs 
    atoms 4, 10            entry N          line   214 file /home/xy3866/psi4conda/share/psi4/basis/aug-cc-pvdz.gbs 


         ---------------------------------------------------------
                                   SCF
               by Justin Turney, Rob Parrish, Andy Simmonett
                          and Daniel G. A. Smith
                              RHF Reference
                        4 Threads,  30517 MiB Core
         ---------------------------------------------------------

  ==> Geometry <==

    Molecular point group: c1
    Full point group: C1

    Geometry (in Angstrom), charge = 0, multiplicity = 1:

       Center              X                  Y                   Z               Mass       
    ------------   -----------------  -----------------  -----------------  -----------------
         C            2.081605636064    -0.347403852022     0.000003256485    12.000000000000
         H            3.176327636064    -0.438931852022    -0.000003743515     1.007825032230
         O            1.359750636064    -1.340092852022    -0.000000743515    15.994914619570
         N            1.654390636064     0.924251147978     0.000000256485    14.003074004430
         H            0.656048636064     1.135858147978     0.000000256485     1.007825032230
         H            2.182083936064     1.688348047978    -0.000003743515     1.007825032230
      Gh(C)          -2.078396063936     0.346961047978     0.000000256485    12.000000000000
      Gh(H)          -3.173118063936     0.438489047978    -0.000001743515     1.007825032230
      Gh(O)          -1.356541063936     1.339650047978    -0.000000743515    15.994914619570
      Gh(N)          -1.651181063936    -0.924693952022    -0.000000743515    14.003074004430
      Gh(H)          -0.652839063936    -1.136300952022    -0.000000743515     1.007825032230
      Gh(H)          -2.322252063936    -1.669009952022    -0.000001743515     1.007825032230

  Running in c1 symmetry.

  Rotational constants: A =      0.18924  B =      0.06139  C =      0.04635 [cm^-1]
  Rotational constants: A =   5673.34941  B =   1840.37514  C =   1389.60261 [MHz]
  Nuclear repulsion =   71.474015499849330

  Charge       = 0
  Multiplicity = 1
  Electrons    = 24
  Nalpha       = 12
  Nbeta        = 12

  ==> Algorithm <==

  SCF Algorithm Type is DF.
  DIIS enabled.
  MOM disabled.
  Fractional occupation disabled.
  Guess Type is SAD.
  Energy threshold   = 1.00e-08
  Density threshold  = 1.00e-08
  Integral threshold = 0.00e+00

  ==> Primary Basis <==

  Basis Set: AUG-CC-PVDZ
    Blend: AUG-CC-PVDZ
    Number of shells: 84
    Number of basis function: 192
    Number of Cartesian functions: 204
    Spherical Harmonics?: true
    Max angular momentum: 2

   => Loading Basis Set <=

    Name: (AUG-CC-PVDZ AUX)
    Role: JKFIT
    Keyword: DF_BASIS_SCF
    atoms 1, 7             entry C          line   154 file /home/xy3866/psi4conda/share/psi4/basis/aug-cc-pvdz-jkfit.gbs 
    atoms 2, 5-6, 8, 11-12 entry H          line    70 file /home/xy3866/psi4conda/share/psi4/basis/aug-cc-pvdz-jkfit.gbs 
    atoms 3, 9             entry O          line   270 file /home/xy3866/psi4conda/share/psi4/basis/aug-cc-pvdz-jkfit.gbs 
    atoms 4, 10            entry N          line   212 file /home/xy3866/psi4conda/share/psi4/basis/aug-cc-pvdz-jkfit.gbs 

  ==> Pre-Iterations <==

   -------------------------------------------------------
    Irrep   Nso     Nmo     Nalpha   Nbeta   Ndocc  Nsocc
   -------------------------------------------------------
     A        192     192       0       0       0       0
   -------------------------------------------------------
    Total     192     192      12      12      12       0
   -------------------------------------------------------

  ==> Integral Setup <==

  ==> DiskDFJK: Density-Fitted J/K Matrices <==

    J tasked:                  Yes
    K tasked:                  Yes
    wK tasked:                  No
    OpenMP threads:              4
    Integrals threads:           4
    Memory [MiB]:            22888
    Algorithm:                Core
    Integral Cache:           LOAD
    Schwarz Cutoff:          1E-12
    Fitting Condition:       1E-10

   => Auxiliary Basis Set <=

  Basis Set: (AUG-CC-PVDZ AUX)
    Blend: AUG-CC-PVDZ-JKFIT
    Number of shells: 240
    Number of basis function: 708
    Number of Cartesian functions: 816
    Spherical Harmonics?: true
    Max angular momentum: 3

  Minimum eigenvalue in the overlap matrix is 2.3429863394E-04.
  Using Symmetric Orthogonalization.

  SCF Guess: Superposition of Atomic Densities via on-the-fly atomic UHF.

  ==> Iterations <==

                           Total Energy        Delta E     RMS |[F,P]|

   @DF-RHF iter SAD:  -168.20430033673264   -1.68204e+02   0.00000e+00 
   @DF-RHF iter   1:  -168.83293317136346   -6.28633e-01   2.72382e-03 DIIS
   @DF-RHF iter   2:  -168.91300304279619   -8.00699e-02   1.77618e-03 DIIS
   @DF-RHF iter   3:  -168.95459012673996   -4.15871e-02   2.71091e-04 DIIS
   @DF-RHF iter   4:  -168.95600305341102   -1.41293e-03   1.11589e-04 DIIS
   @DF-RHF iter   5:  -168.95627985631410   -2.76803e-04   2.06316e-05 DIIS
   @DF-RHF iter   6:  -168.95630294707698   -2.30908e-05   9.72217e-06 DIIS
   @DF-RHF iter   7:  -168.95630789599954   -4.94892e-06   3.87665e-06 DIIS
   @DF-RHF iter   8:  -168.95630874168319   -8.45684e-07   1.19160e-06 DIIS
   @DF-RHF iter   9:  -168.95630881919337   -7.75102e-08   3.05962e-07 DIIS
   @DF-RHF iter  10:  -168.95630882428091   -5.08754e-09   7.13650e-08 DIIS
   @DF-RHF iter  11:  -168.95630882452338   -2.42466e-10   1.30305e-08 DIIS
   @DF-RHF iter  12:  -168.95630882453065   -7.27596e-12   2.44866e-09 DIIS
  Energy and wave function converged.


  ==> Post-Iterations <==

    Orbital Energies [Eh]
    ---------------------

    Doubly Occupied:                                                      

       1A    -20.539025     2A    -15.602485     3A    -11.369195  
       4A     -1.383409     5A     -1.240115     6A     -0.870870  
       7A     -0.770322     8A     -0.675967     9A     -0.606973  
      10A     -0.572993    11A     -0.436445    12A     -0.422714  

    Virtual:                                                              

      13A      0.023497    14A      0.034750    15A      0.047578  
      16A      0.064741    17A      0.066924    18A      0.084770  
      19A      0.100842    20A      0.101803    21A      0.104575  
      22A      0.113612    23A      0.126888    24A      0.154401  
      25A      0.158698    26A      0.160349    27A      0.164198  
      28A      0.171038    29A      0.178305    30A      0.188088  
      31A      0.209230    32A      0.211196    33A      0.230752  
      34A      0.233414    35A      0.241711    36A      0.261167  
      37A      0.270115    38A      0.299076    39A      0.307195  
      40A      0.311111    41A      0.324432    42A      0.348914  
      43A      0.360399    44A      0.361436    45A      0.369644  
      46A      0.375384    47A      0.405502    48A      0.413026  
      49A      0.432513    50A      0.441061    51A      0.443382  
      52A      0.454854    53A      0.463776    54A      0.482602  
      55A      0.494254    56A      0.497243    57A      0.509553  
      58A      0.517651    59A      0.527101    60A      0.541294  
      61A      0.571149    62A      0.578490    63A      0.586772  
      64A      0.604677    65A      0.618000    66A      0.633670  
      67A      0.637699    68A      0.653922    69A      0.654128  
      70A      0.668793    71A      0.682651    72A      0.696051  
      73A      0.716896    74A      0.737229    75A      0.750520  
      76A      0.757234    77A      0.791506    78A      0.795830  
      79A      0.804696    80A      0.816622    81A      0.834605  
      82A      0.842082    83A      0.875247    84A      0.890487  
      85A      0.966317    86A      0.985557    87A      1.000960  
      88A      1.012897    89A      1.019528    90A      1.025769  
      91A      1.040895    92A      1.056535    93A      1.071944  
      94A      1.117525    95A      1.130231    96A      1.155589  
      97A      1.197236    98A      1.213293    99A      1.218398  
     100A      1.241030   101A      1.264226   102A      1.275056  
     103A      1.339719   104A      1.348838   105A      1.359525  
     106A      1.390073   107A      1.398685   108A      1.406693  
     109A      1.449338   110A      1.469724   111A      1.479585  
     112A      1.517808   113A      1.530470   114A      1.566591  
     115A      1.581256   116A      1.630113   117A      1.650760  
     118A      1.691615   119A      1.734930   120A      1.736812  
     121A      1.751793   122A      1.913595   123A      1.942807  
     124A      1.993845   125A      2.022109   126A      2.068552  
     127A      2.075843   128A      2.096026   129A      2.112275  
     130A      2.213304   131A      2.220884   132A      2.257794  
     133A      2.282437   134A      2.304713   135A      2.337467  
     136A      2.366199   137A      2.373989   138A      2.407624  
     139A      2.431284   140A      2.449539   141A      2.466599  
     142A      2.515686   143A      2.533577   144A      2.558644  
     145A      2.661531   146A      2.694773   147A      2.776387  
     148A      2.786404   149A      2.810173   150A      2.841890  
     151A      2.854364   152A      2.890922   153A      2.985107  
     154A      3.034388   155A      3.096782   156A      3.167924  
     157A      3.231857   158A      3.243006   159A      3.257847  
     160A      3.404089   161A      3.452304   162A      3.485084  
     163A      3.533712   164A      3.684736   165A      3.695605  
     166A      3.752695   167A      3.765755   168A      3.767133  
     169A      3.788252   170A      3.817500   171A      3.980209  
     172A      4.122400   173A      4.220868   174A      4.314038  
     175A      4.462131   176A      4.576579   177A      4.591547  
     178A      4.677812   179A      4.954848   180A      5.005745  
     181A      5.045510   182A      5.188830   183A      5.288947  
     184A      5.845211   185A      5.921455   186A      6.048866  
     187A      6.211336   188A      6.344973   189A      7.010096  
     190A     18.604643   191A     25.485434   192A     33.513609  

    Final Occupation by Irrep:
              A 
    DOCC [    12 ]

  @DF-RHF Final Energy:  -168.95630882453065

   => Energetics <=

    Nuclear Repulsion Energy =             71.4740154998493296
    One-Electron Energy =                -371.8796221097118178
    Two-Electron Energy =                 131.4492977853318507
    Total Energy =                       -168.9563088245306517

Computation Completed


Properties will be evaluated at   0.000000,   0.000000,   0.000000 [a0]

Properties computed using the SCF density matrix

  Nuclear Dipole Moment: [e a0]
     X:    77.4085      Y:    -7.4647      Z:     0.0000

  Electronic Dipole Moment: [e a0]
     X:   -76.8249      Y:     9.1081      Z:    -0.0000

  Dipole Moment: [e a0]
     X:     0.5836      Y:     1.6434      Z:    -0.0000     Total:     1.7440

  Dipole Moment: [D]
     X:     1.4834      Y:     4.1771      Z:    -0.0000     Total:     4.4327


*** tstop() called on node51.bme.utexas.edu at Mon Sep  9 20:57:39 2019
Module time:
	user time   =      10.03 seconds =       0.17 minutes
	system time =       0.31 seconds =       0.01 minutes
	total time  =          3 seconds =       0.05 minutes
Total time:
	user time   =      27.11 seconds =       0.45 minutes
	system time =       0.78 seconds =       0.01 minutes
	total time  =          8 seconds =       0.13 minutes

  //>>>>>>>>>>>>>>>>>>>>>>>>>>>>>>>>>>>//
  //            Monomer B HF           //
  //<<<<<<<<<<<<<<<<<<<<<<<<<<<<<<<<<<<//


*** tstart() called on node51.bme.utexas.edu
*** at Mon Sep  9 20:57:39 2019

   => Loading Basis Set <=

    Name: AUG-CC-PVDZ
    Role: ORBITAL
    Keyword: BASIS
    atoms 1, 7             entry C          line   178 file /home/xy3866/psi4conda/share/psi4/basis/aug-cc-pvdz.gbs 
    atoms 2, 5-6, 8, 11-12 entry H          line    36 file /home/xy3866/psi4conda/share/psi4/basis/aug-cc-pvdz.gbs 
    atoms 3, 9             entry O          line   250 file /home/xy3866/psi4conda/share/psi4/basis/aug-cc-pvdz.gbs 
    atoms 4, 10            entry N          line   214 file /home/xy3866/psi4conda/share/psi4/basis/aug-cc-pvdz.gbs 


         ---------------------------------------------------------
                                   SCF
               by Justin Turney, Rob Parrish, Andy Simmonett
                          and Daniel G. A. Smith
                              RHF Reference
                        4 Threads,  30517 MiB Core
         ---------------------------------------------------------

  ==> Geometry <==

    Molecular point group: c1
    Full point group: C1

    Geometry (in Angstrom), charge = 0, multiplicity = 1:

       Center              X                  Y                   Z               Mass       
    ------------   -----------------  -----------------  -----------------  -----------------
      Gh(C)           2.081605636064    -0.347403852022     0.000003256485    12.000000000000
      Gh(H)           3.176327636064    -0.438931852022    -0.000003743515     1.007825032230
      Gh(O)           1.359750636064    -1.340092852022    -0.000000743515    15.994914619570
      Gh(N)           1.654390636064     0.924251147978     0.000000256485    14.003074004430
      Gh(H)           0.656048636064     1.135858147978     0.000000256485     1.007825032230
      Gh(H)           2.182083936064     1.688348047978    -0.000003743515     1.007825032230
         C           -2.078396063936     0.346961047978     0.000000256485    12.000000000000
         H           -3.173118063936     0.438489047978    -0.000001743515     1.007825032230
         O           -1.356541063936     1.339650047978    -0.000000743515    15.994914619570
         N           -1.651181063936    -0.924693952022    -0.000000743515    14.003074004430
         H           -0.652839063936    -1.136300952022    -0.000000743515     1.007825032230
         H           -2.322252063936    -1.669009952022    -0.000001743515     1.007825032230

  Running in c1 symmetry.

  Rotational constants: A =      0.18924  B =      0.06139  C =      0.04635 [cm^-1]
  Rotational constants: A =   5673.34941  B =   1840.37514  C =   1389.60261 [MHz]
  Nuclear repulsion =   71.161114512123262

  Charge       = 0
  Multiplicity = 1
  Electrons    = 24
  Nalpha       = 12
  Nbeta        = 12

  ==> Algorithm <==

  SCF Algorithm Type is DF.
  DIIS enabled.
  MOM disabled.
  Fractional occupation disabled.
  Guess Type is SAD.
  Energy threshold   = 1.00e-08
  Density threshold  = 1.00e-08
  Integral threshold = 0.00e+00

  ==> Primary Basis <==

  Basis Set: AUG-CC-PVDZ
    Blend: AUG-CC-PVDZ
    Number of shells: 84
    Number of basis function: 192
    Number of Cartesian functions: 204
    Spherical Harmonics?: true
    Max angular momentum: 2

   => Loading Basis Set <=

    Name: (AUG-CC-PVDZ AUX)
    Role: JKFIT
    Keyword: DF_BASIS_SCF
    atoms 1, 7             entry C          line   154 file /home/xy3866/psi4conda/share/psi4/basis/aug-cc-pvdz-jkfit.gbs 
    atoms 2, 5-6, 8, 11-12 entry H          line    70 file /home/xy3866/psi4conda/share/psi4/basis/aug-cc-pvdz-jkfit.gbs 
    atoms 3, 9             entry O          line   270 file /home/xy3866/psi4conda/share/psi4/basis/aug-cc-pvdz-jkfit.gbs 
    atoms 4, 10            entry N          line   212 file /home/xy3866/psi4conda/share/psi4/basis/aug-cc-pvdz-jkfit.gbs 

  ==> Pre-Iterations <==

   -------------------------------------------------------
    Irrep   Nso     Nmo     Nalpha   Nbeta   Ndocc  Nsocc
   -------------------------------------------------------
     A        192     192       0       0       0       0
   -------------------------------------------------------
    Total     192     192      12      12      12       0
   -------------------------------------------------------

  ==> Integral Setup <==

  ==> DiskDFJK: Density-Fitted J/K Matrices <==

    J tasked:                  Yes
    K tasked:                  Yes
    wK tasked:                  No
    OpenMP threads:              4
    Integrals threads:           4
    Memory [MiB]:            22888
    Algorithm:                Core
    Integral Cache:           LOAD
    Schwarz Cutoff:          1E-12
    Fitting Condition:       1E-10

   => Auxiliary Basis Set <=

  Basis Set: (AUG-CC-PVDZ AUX)
    Blend: AUG-CC-PVDZ-JKFIT
    Number of shells: 240
    Number of basis function: 708
    Number of Cartesian functions: 816
    Spherical Harmonics?: true
    Max angular momentum: 3

  Minimum eigenvalue in the overlap matrix is 2.3429863394E-04.
  Using Symmetric Orthogonalization.

  SCF Guess: Superposition of Atomic Densities via on-the-fly atomic UHF.

  ==> Iterations <==

                           Total Energy        Delta E     RMS |[F,P]|

   @DF-RHF iter SAD:  -168.17540184118118   -1.68175e+02   0.00000e+00 
   @DF-RHF iter   1:  -168.83875007116492   -6.63348e-01   2.70107e-03 DIIS
   @DF-RHF iter   2:  -168.91745465110679   -7.87046e-02   1.80227e-03 DIIS
   @DF-RHF iter   3:  -168.96061586727961   -4.31612e-02   2.68502e-04 DIIS
   @DF-RHF iter   4:  -168.96206946104297   -1.45359e-03   1.12824e-04 DIIS
   @DF-RHF iter   5:  -168.96236092543307   -2.91464e-04   2.21950e-05 DIIS
   @DF-RHF iter   6:  -168.96238926897925   -2.83435e-05   1.07861e-05 DIIS
   @DF-RHF iter   7:  -168.96239534685645   -6.07788e-06   4.18369e-06 DIIS
   @DF-RHF iter   8:  -168.96239631886965   -9.72013e-07   1.26352e-06 DIIS
   @DF-RHF iter   9:  -168.96239640532445   -8.64548e-08   3.30826e-07 DIIS
   @DF-RHF iter  10:  -168.96239641136177   -6.03731e-09   7.43549e-08 DIIS
   @DF-RHF iter  11:  -168.96239641162788   -2.66112e-10   1.31676e-08 DIIS
   @DF-RHF iter  12:  -168.96239641163530   -7.41807e-12   2.50150e-09 DIIS
  Energy and wave function converged.


  ==> Post-Iterations <==

    Orbital Energies [Eh]
    ---------------------

    Doubly Occupied:                                                      

       1A    -20.537355     2A    -15.609763     3A    -11.366228  
       4A     -1.381752     5A     -1.229997     6A     -0.856357  
       7A     -0.757254     8A     -0.678147     9A     -0.604242  
      10A     -0.571741    11A     -0.434402    12A     -0.420996  

    Virtual:                                                              

      13A      0.023589    14A      0.034254    15A      0.047668  
      16A      0.065097    17A      0.066378    18A      0.084796  
      19A      0.100820    20A      0.101026    21A      0.105512  
      22A      0.113168    23A      0.127366    24A      0.154498  
      25A      0.159303    26A      0.160129    27A      0.163225  
      28A      0.171152    29A      0.179118    30A      0.188315  
      31A      0.209822    32A      0.210462    33A      0.230634  
      34A      0.230728    35A      0.240502    36A      0.261157  
      37A      0.270619    38A      0.298748    39A      0.305652  
      40A      0.311302    41A      0.325853    42A      0.342461  
      43A      0.356707    44A      0.358777    45A      0.369229  
      46A      0.374285    47A      0.402069    48A      0.413435  
      49A      0.432008    50A      0.439595    51A      0.446370  
      52A      0.455298    53A      0.463567    54A      0.479764  
      55A      0.497432    56A      0.499883    57A      0.509804  
      58A      0.517362    59A      0.525691    60A      0.542297  
      61A      0.569168    62A      0.574443    63A      0.591152  
      64A      0.601200    65A      0.619861    66A      0.632286  
      67A      0.636532    68A      0.648769    69A      0.652170  
      70A      0.675641    71A      0.682890    72A      0.691547  
      73A      0.716460    74A      0.740414    75A      0.752157  
      76A      0.758298    77A      0.788550    78A      0.797911  
      79A      0.808702    80A      0.818475    81A      0.828794  
      82A      0.844100    83A      0.874159    84A      0.897294  
      85A      0.966998    86A      0.976572    87A      0.993158  
      88A      1.012724    89A      1.019582    90A      1.022127  
      91A      1.040554    92A      1.056273    93A      1.073590  
      94A      1.110845    95A      1.125005    96A      1.165429  
      97A      1.198571    98A      1.213748    99A      1.220507  
     100A      1.242620   101A      1.265373   102A      1.276593  
     103A      1.339222   104A      1.345841   105A      1.357914  
     106A      1.392850   107A      1.398075   108A      1.399982  
     109A      1.446873   110A      1.470386   111A      1.480963  
     112A      1.510594   113A      1.529126   114A      1.548728  
     115A      1.578121   116A      1.629134   117A      1.655898  
     118A      1.691143   119A      1.730344   120A      1.736156  
     121A      1.756565   122A      1.912748   123A      1.919965  
     124A      1.993232   125A      2.014650   126A      2.068083  
     127A      2.076670   128A      2.089276   129A      2.090239  
     130A      2.212882   131A      2.221232   132A      2.257322  
     133A      2.289851   134A      2.312313   135A      2.332720  
     136A      2.382199   137A      2.402107   138A      2.402391  
     139A      2.437312   140A      2.466833   141A      2.480050  
     142A      2.520545   143A      2.548913   144A      2.575051  
     145A      2.620461   146A      2.657527   147A      2.778002  
     148A      2.784243   149A      2.788238   150A      2.826995  
     151A      2.843754   152A      2.910124   153A      2.979999  
     154A      3.049969   155A      3.069387   156A      3.171305  
     157A      3.205400   158A      3.243695   159A      3.252766  
     160A      3.387027   161A      3.434737   162A      3.496784  
     163A      3.510073   164A      3.669272   165A      3.700641  
     166A      3.754510   167A      3.781129   168A      3.797745  
     169A      3.807043   170A      3.820775   171A      3.973432  
     172A      4.118000   173A      4.211809   174A      4.316276  
     175A      4.462503   176A      4.562894   177A      4.616952  
     178A      4.677178   179A      4.954804   180A      5.005757  
     181A      5.053560   182A      5.233850   183A      5.312627  
     184A      5.843745   185A      5.919267   186A      6.088428  
     187A      6.302266   188A      6.686239   189A      6.997026  
     190A     18.597883   191A     25.485177   192A     33.512297  

    Final Occupation by Irrep:
              A 
    DOCC [    12 ]

  @DF-RHF Final Energy:  -168.96239641163530

   => Energetics <=

    Nuclear Repulsion Energy =             71.1611145121232624
    One-Electron Energy =                -371.3505537214227274
    Two-Electron Energy =                 131.2270427976641543
    Total Energy =                       -168.9623964116352965

Computation Completed


Properties will be evaluated at   0.000000,   0.000000,   0.000000 [a0]

Properties computed using the SCF density matrix

  Nuclear Dipole Moment: [e a0]
     X:   -77.5339      Y:     7.4820      Z:    -0.0000

  Electronic Dipole Moment: [e a0]
     X:    76.9117      Y:    -9.1271      Z:     0.0000

  Dipole Moment: [e a0]
     X:    -0.6223      Y:    -1.6451      Z:    -0.0000     Total:     1.7588

  Dipole Moment: [D]
     X:    -1.5816      Y:    -4.1814      Z:    -0.0000     Total:     4.4705


*** tstop() called on node51.bme.utexas.edu at Mon Sep  9 20:57:42 2019
Module time:
	user time   =       9.97 seconds =       0.17 minutes
	system time =       0.41 seconds =       0.01 minutes
	total time  =          3 seconds =       0.05 minutes
Total time:
	user time   =      37.10 seconds =       0.62 minutes
	system time =       1.19 seconds =       0.02 minutes
	total time  =         11 seconds =       0.18 minutes
  Constructing Basis Sets for SAPT...

   => Loading Basis Set <=

    Name: (AUG-CC-PVDZ AUX)
    Role: RIFIT
    Keyword: DF_BASIS_SAPT
    atoms 1, 7             entry C          line   112 file /home/xy3866/psi4conda/share/psi4/basis/aug-cc-pvdz-ri.gbs 
    atoms 2, 5-6, 8, 11-12 entry H          line    30 file /home/xy3866/psi4conda/share/psi4/basis/aug-cc-pvdz-ri.gbs 
    atoms 3, 9             entry O          line   204 file /home/xy3866/psi4conda/share/psi4/basis/aug-cc-pvdz-ri.gbs 
    atoms 4, 10            entry N          line   158 file /home/xy3866/psi4conda/share/psi4/basis/aug-cc-pvdz-ri.gbs 


  //>>>>>>>>>>>>>>>>>>>>>>>>>>>>>>>>>>>//
  //               SAPT2+              //
  //<<<<<<<<<<<<<<<<<<<<<<<<<<<<<<<<<<<//


*** tstart() called on node51.bme.utexas.edu
*** at Mon Sep  9 20:57:42 2019

        SAPT2+  
    Ed Hohenstein
     6 June 2009

      Orbital Information
  --------------------------
    NSO        =       192
    NMO        =       192
    NRI        =       570
    NOCC A     =        12
    NOCC B     =        12
    FOCC A     =         3
    FOCC B     =         3
    NVIR A     =       180
    NVIR B     =       180

    Estimated memory usage: 259.7 MB

    Natural Orbital Cutoff:   1.000E-06
    Disp(T3) Truncation:            Yes
    CCD (vv|vv) Truncation:         Yes
    MBPT T2 Truncation:             Yes

    Monomer A: 93 virtual orbitals dropped
    Monomer B: 93 virtual orbitals dropped

    Elst10,r            =    -0.030709342552 [Eh]
    Exch10 (S^2)        =     0.020914165065 [Eh]
    Exch10              =     0.021076101782 [Eh]
    Ind20,r (A<-B)      =    -0.005540590468 [Eh]
    Ind20,r (B<-A)      =    -0.005440959744 [Eh]
    Ind20,r             =    -0.010981550211 [Eh]
    Exch-Ind20,r (A<-B) =     0.002507166526 [Eh]
    Exch-Ind20,r (B<-A) =     0.002484232911 [Eh]
    Exch-Ind20,r        =     0.004991399438 [Eh]
    Disp20              =    -0.008668538573 [Eh]
    Disp20 (NO)         =    -0.007787047697 [Eh]
    Exch-Disp20         =     0.001416853685 [Eh]
    Elst12,r            =     0.001340588371 [Eh]
    Exch11              =    -0.000136524416 [Eh]
    Exch12              =     0.004606188917 [Eh]
    Ind22               =    -0.001745079558 [Eh]
    Disp21              =     0.000631279241 [Eh]
    Disp22 (SDQ)        =    -0.000421985178 [Eh]

    (i =   1 of   9)          2 seconds
    (i =   2 of   9)          4 seconds
    (i =   3 of   9)          5 seconds
    (i =   4 of   9)          7 seconds
    (i =   5 of   9)          9 seconds
    (i =   6 of   9)         11 seconds
    (i =   7 of   9)         12 seconds
    (i =   8 of   9)         14 seconds
    (i =   9 of   9)         15 seconds

    Disp220 (T)         =    -0.000695955654 [Eh]

    (i =   1 of   9)          1 seconds
    (i =   2 of   9)          3 seconds
    (i =   3 of   9)          5 seconds
    (i =   4 of   9)          6 seconds
    (i =   5 of   9)          8 seconds
    (i =   6 of   9)         10 seconds
    (i =   7 of   9)         11 seconds
    (i =   8 of   9)         13 seconds
    (i =   9 of   9)         15 seconds

    Disp202 (T)         =    -0.000700970900 [Eh]

    Disp22 (T)          =    -0.001396926554 [Eh]

    Est. Disp220 (T)    =    -0.000774737573 [Eh]
    Est. Disp202 (T)    =    -0.000780320543 [Eh]

    Est. Disp22 (T)     =    -0.001555058116 [Eh]

    SAPT Results 
  --------------------------------------------------------------------------------------------------------
    Electrostatics                -29.36875418 [mEh]     -18.42917148 [kcal/mol]     -77.10765348 [kJ/mol]
      Elst10,r                    -30.70934255 [mEh]     -19.27040339 [kcal/mol]     -80.62736776 [kJ/mol]
      Elst12,r                      1.34058837 [mEh]       0.84123190 [kcal/mol]       3.51971428 [kJ/mol]

    Exchange                       25.54576628 [mEh]      16.03021036 [kcal/mol]      67.07040014 [kJ/mol]
      Exch10                       21.07610178 [mEh]      13.22545354 [kcal/mol]      55.33529761 [kJ/mol]
      Exch10(S^2)                  20.91416507 [mEh]      13.12383671 [kcal/mol]      54.91013281 [kJ/mol]
      Exch11(S^2)                  -0.13652442 [mEh]      -0.08567036 [kcal/mol]      -0.35844480 [kJ/mol]
      Exch12(S^2)                   4.60618892 [mEh]       2.89042718 [kcal/mol]      12.09354733 [kJ/mol]

    Induction                     -10.64138188 [mEh]      -6.67756794 [kcal/mol]     -27.93894427 [kJ/mol]
      Ind20,r                     -10.98155021 [mEh]      -6.89102679 [kcal/mol]     -28.83205611 [kJ/mol]
      Ind22                        -1.74507956 [mEh]      -1.09505395 [kcal/mol]      -4.58170575 [kJ/mol]
      Exch-Ind20,r                  4.99139944 [mEh]       3.13215043 [kcal/mol]      13.10491742 [kJ/mol]
      Exch-Ind22                    0.79318393 [mEh]       0.49773043 [kcal/mol]       2.08250411 [kJ/mol]
      delta HF,r (2)               -3.69933547 [mEh]      -2.32136806 [kcal/mol]      -9.71260395 [kJ/mol]

    Dispersion                     -8.59744894 [mEh]      -5.39498066 [kcal/mol]     -22.57259909 [kJ/mol]
      Disp20                       -8.66853857 [mEh]      -5.43959008 [kcal/mol]     -22.75924489 [kJ/mol]
      Disp21                        0.63127924 [mEh]       0.39613370 [kcal/mol]       1.65742342 [kJ/mol]
      Disp22 (SDQ)                 -0.42198518 [mEh]      -0.26479970 [kcal/mol]      -1.10792193 [kJ/mol]
      Disp22 (T)                   -1.39692655 [mEh]      -0.87658465 [kcal/mol]      -3.66763016 [kJ/mol]
      Est. Disp22 (T)              -1.55505812 [mEh]      -0.97581370 [kcal/mol]      -4.08280452 [kJ/mol]
      Exch-Disp20                   1.41685368 [mEh]       0.88908911 [kcal/mol]       3.71994884 [kJ/mol]

  Total HF                        -19.32272702 [mEh]     -12.12519426 [kcal/mol]     -50.73181280 [kJ/mol]
  Total SAPT0                     -26.57441191 [mEh]     -16.67569523 [kcal/mol]     -69.77110885 [kJ/mol]
  Total SAPT2                     -21.71605467 [mEh]     -13.62703004 [kcal/mol]     -57.01549367 [kJ/mol]
  Total SAPT2+                    -23.06181872 [mEh]     -14.47150973 [kcal/mol]     -60.54879670 [kJ/mol]

  Special recipe for scaled SAPT0 (see Manual):
    Electrostatics sSAPT0         -30.70934255 [mEh]     -19.27040339 [kcal/mol]     -80.62736776 [kJ/mol]
    Exchange sSAPT0                21.07610178 [mEh]      13.22545354 [kcal/mol]      55.33529761 [kJ/mol]
    Induction sSAPT0               -9.57264216 [mEh]      -6.00692364 [kcal/mol]     -25.13296853 [kJ/mol]
    Dispersion sSAPT0              -7.21851764 [mEh]      -4.52968821 [kcal/mol]     -18.95221546 [kJ/mol]
  Total sSAPT0                    -26.42440057 [mEh]     -16.58156170 [kcal/mol]     -69.37725414 [kJ/mol]
  --------------------------------------------------------------------------------------------------------

*** tstop() called on node51.bme.utexas.edu at Mon Sep  9 20:58:35 2019
Module time:
	user time   =     199.13 seconds =       3.32 minutes
	system time =       8.02 seconds =       0.13 minutes
	total time  =         53 seconds =       0.88 minutes
Total time:
	user time   =     236.69 seconds =       3.94 minutes
	system time =       9.25 seconds =       0.15 minutes
	total time  =         64 seconds =       1.07 minutes

    Psi4 stopped on: Monday, 09 September 2019 08:58PM
    Psi4 wall time for execution: 0:01:04.16

*** Psi4 exiting successfully. Buy a developer a beer!
