
    -----------------------------------------------------------------------
          Psi4: An Open-Source Ab Initio Electronic Structure Package
                               Psi4 1.3.2 release

                         Git: Rev {HEAD} ecbda83 


    R. M. Parrish, L. A. Burns, D. G. A. Smith, A. C. Simmonett,
    A. E. DePrince III, E. G. Hohenstein, U. Bozkaya, A. Yu. Sokolov,
    R. Di Remigio, R. M. Richard, J. F. Gonthier, A. M. James,
    H. R. McAlexander, A. Kumar, M. Saitow, X. Wang, B. P. Pritchard,
    P. Verma, H. F. Schaefer III, K. Patkowski, R. A. King, E. F. Valeev,
    F. A. Evangelista, J. M. Turney, T. D. Crawford, and C. D. Sherrill,
    J. Chem. Theory Comput. 13(7) pp 3185--3197 (2017).
    (doi: 10.1021/acs.jctc.7b00174)


                         Additional Contributions by
    P. Kraus, H. Kruse, M. H. Lechner, M. C. Schieber, R. A. Shaw,
    A. Alenaizan, R. Galvelis, Z. L. Glick, S. Lehtola, and J. P. Misiewicz

    -----------------------------------------------------------------------


    Psi4 started on: Monday, 09 September 2019 03:39PM

    Process ID: 92923
    Host:       g2-node38.bme.utexas.edu
    PSIDATADIR: /home/xy3866/psi4conda/share/psi4
    Memory:     500.0 MiB
    Threads:    4
    
  ==> Input File <==

--------------------------------------------------------------------------
#psi4
#
memory 32 gb

molecule  {
0 1
  C       -1.9521150     0.2323370    -0.0000010
  H       -3.0450720     0.2485030     0.0000010
  O       -1.2823360     1.2482650     0.0000000
  O       -1.5045270    -1.0066940    -0.0000010
  H       -0.5061810    -1.0124010    -0.0000010
--
0 1
  C        1.8148187    -0.2370040     0.0000030
  H        2.8975147    -0.4090300    -0.0000010
  O        1.0254297    -1.1801370    -0.0000001
  N        1.4699857     1.0561480     0.0000009
  H        0.4845807     1.3074680    -0.0000001
  H        2.1801997     1.7630280    -0.0000010
units angstrom
no_reorient  #important for SAPT in psi4, default
symmetry c1  #important for SAPT in psi4, default
}

set {
basis aug-cc-pVDZ
scf_type DF
freeze_core True
}
energy('sapt2+')
--------------------------------------------------------------------------

  Memory set to  29.802 GiB by Python driver.

  //>>>>>>>>>>>>>>>>>>>>>>>>>>>>>>>>>>>//
  //              Dimer HF             //
  //<<<<<<<<<<<<<<<<<<<<<<<<<<<<<<<<<<<//


*** tstart() called on g2-node38.bme.utexas.edu
*** at Mon Sep  9 15:39:15 2019

   => Loading Basis Set <=

    Name: AUG-CC-PVDZ
    Role: ORBITAL
    Keyword: BASIS
    atoms 1, 6           entry C          line   178 file /home/xy3866/psi4conda/share/psi4/basis/aug-cc-pvdz.gbs 
    atoms 2, 5, 7, 10-11 entry H          line    36 file /home/xy3866/psi4conda/share/psi4/basis/aug-cc-pvdz.gbs 
    atoms 3-4, 8         entry O          line   250 file /home/xy3866/psi4conda/share/psi4/basis/aug-cc-pvdz.gbs 
    atoms 9              entry N          line   214 file /home/xy3866/psi4conda/share/psi4/basis/aug-cc-pvdz.gbs 


         ---------------------------------------------------------
                                   SCF
               by Justin Turney, Rob Parrish, Andy Simmonett
                          and Daniel G. A. Smith
                              RHF Reference
                        4 Threads,  30517 MiB Core
         ---------------------------------------------------------

  ==> Geometry <==

    Molecular point group: c1
    Full point group: C1

    Geometry (in Angstrom), charge = 0, multiplicity = 1:

       Center              X                  Y                   Z               Mass       
    ------------   -----------------  -----------------  -----------------  -----------------
         C           -1.872902917399     0.214392333890    -0.000001185571    12.000000000000
         H           -2.965859917399     0.230558333890     0.000000814429     1.007825032230
         O           -1.203123917399     1.230320333890    -0.000000185571    15.994914619570
         O           -1.425314917399    -1.024638666110    -0.000001185571    15.994914619570
         H           -0.426968917399    -1.030345666110    -0.000001185571     1.007825032230
         C            1.894030782601    -0.254948666110     0.000002814429    12.000000000000
         H            2.976726782601    -0.426974666110    -0.000001185571     1.007825032230
         O            1.104641782601    -1.198081666110    -0.000000285571    15.994914619570
         N            1.549197782601     1.038203333890     0.000000714429    14.003074004430
         H            0.563792782601     1.289523333890    -0.000000285571     1.007825032230
         H            2.259411782601     1.745083333890    -0.000001185571     1.007825032230

  Running in c1 symmetry.

  Rotational constants: A =      0.19573  B =      0.07745  C =      0.05549 [cm^-1]
  Rotational constants: A =   5867.71753  B =   2321.77325  C =   1663.53561 [MHz]
  Nuclear repulsion =  236.569840121323864

  Charge       = 0
  Multiplicity = 1
  Electrons    = 48
  Nalpha       = 24
  Nbeta        = 24

  ==> Algorithm <==

  SCF Algorithm Type is DF.
  DIIS enabled.
  MOM disabled.
  Fractional occupation disabled.
  Guess Type is SAD.
  Energy threshold   = 1.00e-08
  Density threshold  = 1.00e-08
  Integral threshold = 0.00e+00

  ==> Primary Basis <==

  Basis Set: AUG-CC-PVDZ
    Blend: AUG-CC-PVDZ
    Number of shells: 79
    Number of basis function: 183
    Number of Cartesian functions: 195
    Spherical Harmonics?: true
    Max angular momentum: 2

   => Loading Basis Set <=

    Name: (AUG-CC-PVDZ AUX)
    Role: JKFIT
    Keyword: DF_BASIS_SCF
    atoms 1, 6           entry C          line   154 file /home/xy3866/psi4conda/share/psi4/basis/aug-cc-pvdz-jkfit.gbs 
    atoms 2, 5, 7, 10-11 entry H          line    70 file /home/xy3866/psi4conda/share/psi4/basis/aug-cc-pvdz-jkfit.gbs 
    atoms 3-4, 8         entry O          line   270 file /home/xy3866/psi4conda/share/psi4/basis/aug-cc-pvdz-jkfit.gbs 
    atoms 9              entry N          line   212 file /home/xy3866/psi4conda/share/psi4/basis/aug-cc-pvdz-jkfit.gbs 

  ==> Pre-Iterations <==

   -------------------------------------------------------
    Irrep   Nso     Nmo     Nalpha   Nbeta   Ndocc  Nsocc
   -------------------------------------------------------
     A        183     183       0       0       0       0
   -------------------------------------------------------
    Total     183     183      24      24      24       0
   -------------------------------------------------------

  ==> Integral Setup <==

  ==> DiskDFJK: Density-Fitted J/K Matrices <==

    J tasked:                  Yes
    K tasked:                  Yes
    wK tasked:                  No
    OpenMP threads:              4
    Integrals threads:           4
    Memory [MiB]:            22888
    Algorithm:                Core
    Integral Cache:           SAVE
    Schwarz Cutoff:          1E-12
    Fitting Condition:       1E-10

   => Auxiliary Basis Set <=

  Basis Set: (AUG-CC-PVDZ AUX)
    Blend: AUG-CC-PVDZ-JKFIT
    Number of shells: 228
    Number of basis function: 676
    Number of Cartesian functions: 781
    Spherical Harmonics?: true
    Max angular momentum: 3

  Minimum eigenvalue in the overlap matrix is 2.6793245320E-04.
  Using Symmetric Orthogonalization.

  SCF Guess: Superposition of Atomic Densities via on-the-fly atomic UHF.

  ==> Iterations <==

                           Total Energy        Delta E     RMS |[F,P]|

   @DF-RHF iter SAD:  -356.48568777267030   -3.56486e+02   0.00000e+00 
   @DF-RHF iter   1:  -357.58410858898350   -1.09842e+00   3.69910e-03 DIIS
   @DF-RHF iter   2:  -357.71534593439435   -1.31237e-01   2.23098e-03 DIIS
   @DF-RHF iter   3:  -357.77452597436172   -5.91800e-02   3.14526e-04 DIIS
   @DF-RHF iter   4:  -357.77650141535781   -1.97544e-03   1.37433e-04 DIIS
   @DF-RHF iter   5:  -357.77684367529781   -3.42260e-04   3.24596e-05 DIIS
   @DF-RHF iter   6:  -357.77688774681280   -4.40715e-05   1.60528e-05 DIIS
   @DF-RHF iter   7:  -357.77689867706459   -1.09303e-05   5.67052e-06 DIIS
   @DF-RHF iter   8:  -357.77690027206131   -1.59500e-06   2.25836e-06 DIIS
   @DF-RHF iter   9:  -357.77690048488091   -2.12820e-07   7.53743e-07 DIIS
   @DF-RHF iter  10:  -357.77690050927737   -2.43965e-08   2.75462e-07 DIIS
   @DF-RHF iter  11:  -357.77690051176427   -2.48690e-09   1.11798e-07 DIIS
   @DF-RHF iter  12:  -357.77690051207094   -3.06670e-10   3.33985e-08 DIIS
   @DF-RHF iter  13:  -357.77690051210334   -3.24007e-11   7.13681e-09 DIIS
  Energy and wave function converged.


  ==> Post-Iterations <==

    Orbital Energies [Eh]
    ---------------------

    Doubly Occupied:                                                      

       1A    -20.597259     2A    -20.565370     3A    -20.561435  
       4A    -15.603475     5A    -11.397022     6A    -11.385783  
       7A     -1.461124     8A     -1.412062     9A     -1.363465  
      10A     -1.235107    11A     -0.897477    12A     -0.854209  
      13A     -0.768875    14A     -0.745492    15A     -0.708246  
      16A     -0.664101    17A     -0.634253    18A     -0.618951  
      19A     -0.589908    20A     -0.573765    21A     -0.479328  
      22A     -0.476907    23A     -0.449385    24A     -0.433709  

    Virtual:                                                              

      25A      0.028051    26A      0.044250    27A      0.049958  
      28A      0.069717    29A      0.085300    30A      0.085999  
      31A      0.099953    32A      0.116185    33A      0.126289  
      34A      0.142973    35A      0.145715    36A      0.154345  
      37A      0.165833    38A      0.171048    39A      0.180449  
      40A      0.186937    41A      0.188882    42A      0.223273  
      43A      0.249189    44A      0.254901    45A      0.271580  
      46A      0.274847    47A      0.283015    48A      0.286976  
      49A      0.320599    50A      0.327500    51A      0.329802  
      52A      0.334588    53A      0.344638    54A      0.357242  
      55A      0.362450    56A      0.363931    57A      0.380008  
      58A      0.412446    59A      0.420031    60A      0.427079  
      61A      0.434778    62A      0.437477    63A      0.460356  
      64A      0.484372    65A      0.501364    66A      0.518003  
      67A      0.520032    68A      0.534727    69A      0.561160  
      70A      0.567848    71A      0.596215    72A      0.622174  
      73A      0.630765    74A      0.638401    75A      0.651922  
      76A      0.653810    77A      0.675445    78A      0.681152  
      79A      0.691591    80A      0.698796    81A      0.707904  
      82A      0.720741    83A      0.737147    84A      0.744900  
      85A      0.771616    86A      0.796888    87A      0.797002  
      88A      0.824725    89A      0.860025    90A      0.896381  
      91A      0.928417    92A      0.944376    93A      0.976567  
      94A      0.984027    95A      0.988282    96A      1.005366  
      97A      1.023794    98A      1.045069    99A      1.059558  
     100A      1.128065   101A      1.154973   102A      1.164758  
     103A      1.201723   104A      1.222521   105A      1.231929  
     106A      1.236456   107A      1.250243   108A      1.267399  
     109A      1.299832   110A      1.336634   111A      1.368686  
     112A      1.398055   113A      1.435651   114A      1.470498  
     115A      1.492109   116A      1.544878   117A      1.561663  
     118A      1.572262   119A      1.632356   120A      1.639305  
     121A      1.680151   122A      1.695839   123A      1.698432  
     124A      1.713056   125A      1.743126   126A      1.760977  
     127A      1.786476   128A      1.792264   129A      1.881201  
     130A      1.907722   131A      1.921142   132A      1.981795  
     133A      1.986266   134A      2.009973   135A      2.050996  
     136A      2.054354   137A      2.095900   138A      2.116720  
     139A      2.126541   140A      2.164462   141A      2.200830  
     142A      2.206018   143A      2.268117   144A      2.289670  
     145A      2.311614   146A      2.351999   147A      2.383517  
     148A      2.400849   149A      2.471246   150A      2.489133  
     151A      2.514219   152A      2.576365   153A      2.699793  
     154A      2.786516   155A      2.787399   156A      2.839111  
     157A      2.858016   158A      2.917468   159A      2.981105  
     160A      3.059805   161A      3.086739   162A      3.162253  
     163A      3.175687   164A      3.288920   165A      3.384592  
     166A      3.425512   167A      3.539237   168A      3.688612  
     169A      3.720549   170A      3.744930   171A      3.752807  
     172A      3.762934   173A      3.802400   174A      3.816815  
     175A      3.839581   176A      3.856824   177A      3.904056  
     178A      4.012765   179A      4.082850   180A      4.120790  
     181A      4.237779   182A      4.258010   183A      4.527987  

    Final Occupation by Irrep:
              A 
    DOCC [    24 ]

  @DF-RHF Final Energy:  -357.77690051210334

   => Energetics <=

    Nuclear Repulsion Energy =            236.5698401213238640
    One-Electron Energy =                -959.7400636946481427
    Two-Electron Energy =                 365.3933230612209400
    Total Energy =                       -357.7769005121033388

Computation Completed


Properties will be evaluated at   0.000000,   0.000000,   0.000000 [a0]

Properties computed using the SCF density matrix

  Nuclear Dipole Moment: [e a0]
     X:     2.2448      Y:     1.6870      Z:    -0.0000

  Electronic Dipole Moment: [e a0]
     X:    -1.3773      Y:    -0.8751      Z:     0.0000

  Dipole Moment: [e a0]
     X:     0.8675      Y:     0.8120      Z:    -0.0000     Total:     1.1882

  Dipole Moment: [D]
     X:     2.2049      Y:     2.0638      Z:    -0.0000     Total:     3.0200


*** tstop() called on g2-node38.bme.utexas.edu at Mon Sep  9 15:39:21 2019
Module time:
	user time   =      18.58 seconds =       0.31 minutes
	system time =       0.73 seconds =       0.01 minutes
	total time  =          6 seconds =       0.10 minutes
Total time:
	user time   =      18.58 seconds =       0.31 minutes
	system time =       0.73 seconds =       0.01 minutes
	total time  =          6 seconds =       0.10 minutes

  //>>>>>>>>>>>>>>>>>>>>>>>>>>>>>>>>>>>//
  //            Monomer A HF           //
  //<<<<<<<<<<<<<<<<<<<<<<<<<<<<<<<<<<<//


*** tstart() called on g2-node38.bme.utexas.edu
*** at Mon Sep  9 15:39:21 2019

   => Loading Basis Set <=

    Name: AUG-CC-PVDZ
    Role: ORBITAL
    Keyword: BASIS
    atoms 1, 6           entry C          line   178 file /home/xy3866/psi4conda/share/psi4/basis/aug-cc-pvdz.gbs 
    atoms 2, 5, 7, 10-11 entry H          line    36 file /home/xy3866/psi4conda/share/psi4/basis/aug-cc-pvdz.gbs 
    atoms 3-4, 8         entry O          line   250 file /home/xy3866/psi4conda/share/psi4/basis/aug-cc-pvdz.gbs 
    atoms 9              entry N          line   214 file /home/xy3866/psi4conda/share/psi4/basis/aug-cc-pvdz.gbs 


         ---------------------------------------------------------
                                   SCF
               by Justin Turney, Rob Parrish, Andy Simmonett
                          and Daniel G. A. Smith
                              RHF Reference
                        4 Threads,  30517 MiB Core
         ---------------------------------------------------------

  ==> Geometry <==

    Molecular point group: c1
    Full point group: C1

    Geometry (in Angstrom), charge = 0, multiplicity = 1:

       Center              X                  Y                   Z               Mass       
    ------------   -----------------  -----------------  -----------------  -----------------
         C           -1.872902917399     0.214392333890    -0.000001185571    12.000000000000
         H           -2.965859917399     0.230558333890     0.000000814429     1.007825032230
         O           -1.203123917399     1.230320333890    -0.000000185571    15.994914619570
         O           -1.425314917399    -1.024638666110    -0.000001185571    15.994914619570
         H           -0.426968917399    -1.030345666110    -0.000001185571     1.007825032230
      Gh(C)           1.894030782601    -0.254948666110     0.000002814429    12.000000000000
      Gh(H)           2.976726782601    -0.426974666110    -0.000001185571     1.007825032230
      Gh(O)           1.104641782601    -1.198081666110    -0.000000285571    15.994914619570
      Gh(N)           1.549197782601     1.038203333890     0.000000714429    14.003074004430
      Gh(H)           0.563792782601     1.289523333890    -0.000000285571     1.007825032230
      Gh(H)           2.259411782601     1.745083333890    -0.000001185571     1.007825032230

  Running in c1 symmetry.

  Rotational constants: A =      0.19573  B =      0.07745  C =      0.05549 [cm^-1]
  Rotational constants: A =   5867.71753  B =   2321.77325  C =   1663.53561 [MHz]
  Nuclear repulsion =   70.088027451303887

  Charge       = 0
  Multiplicity = 1
  Electrons    = 24
  Nalpha       = 12
  Nbeta        = 12

  ==> Algorithm <==

  SCF Algorithm Type is DF.
  DIIS enabled.
  MOM disabled.
  Fractional occupation disabled.
  Guess Type is SAD.
  Energy threshold   = 1.00e-08
  Density threshold  = 1.00e-08
  Integral threshold = 0.00e+00

  ==> Primary Basis <==

  Basis Set: AUG-CC-PVDZ
    Blend: AUG-CC-PVDZ
    Number of shells: 79
    Number of basis function: 183
    Number of Cartesian functions: 195
    Spherical Harmonics?: true
    Max angular momentum: 2

   => Loading Basis Set <=

    Name: (AUG-CC-PVDZ AUX)
    Role: JKFIT
    Keyword: DF_BASIS_SCF
    atoms 1, 6           entry C          line   154 file /home/xy3866/psi4conda/share/psi4/basis/aug-cc-pvdz-jkfit.gbs 
    atoms 2, 5, 7, 10-11 entry H          line    70 file /home/xy3866/psi4conda/share/psi4/basis/aug-cc-pvdz-jkfit.gbs 
    atoms 3-4, 8         entry O          line   270 file /home/xy3866/psi4conda/share/psi4/basis/aug-cc-pvdz-jkfit.gbs 
    atoms 9              entry N          line   212 file /home/xy3866/psi4conda/share/psi4/basis/aug-cc-pvdz-jkfit.gbs 

  ==> Pre-Iterations <==

   -------------------------------------------------------
    Irrep   Nso     Nmo     Nalpha   Nbeta   Ndocc  Nsocc
   -------------------------------------------------------
     A        183     183       0       0       0       0
   -------------------------------------------------------
    Total     183     183      12      12      12       0
   -------------------------------------------------------

  ==> Integral Setup <==

  ==> DiskDFJK: Density-Fitted J/K Matrices <==

    J tasked:                  Yes
    K tasked:                  Yes
    wK tasked:                  No
    OpenMP threads:              4
    Integrals threads:           4
    Memory [MiB]:            22888
    Algorithm:                Core
    Integral Cache:           LOAD
    Schwarz Cutoff:          1E-12
    Fitting Condition:       1E-10

   => Auxiliary Basis Set <=

  Basis Set: (AUG-CC-PVDZ AUX)
    Blend: AUG-CC-PVDZ-JKFIT
    Number of shells: 228
    Number of basis function: 676
    Number of Cartesian functions: 781
    Spherical Harmonics?: true
    Max angular momentum: 3

  Minimum eigenvalue in the overlap matrix is 2.6793245320E-04.
  Using Symmetric Orthogonalization.

  SCF Guess: Superposition of Atomic Densities via on-the-fly atomic UHF.

  ==> Iterations <==

                           Total Energy        Delta E     RMS |[F,P]|

   @DF-RHF iter SAD:  -187.95998526271944   -1.87960e+02   0.00000e+00 
   @DF-RHF iter   1:  -188.68720598186701   -7.27221e-01   2.76833e-03 DIIS
   @DF-RHF iter   2:  -188.75058444831589   -6.33785e-02   1.91420e-03 DIIS
   @DF-RHF iter   3:  -188.79320810763653   -4.26237e-02   2.35950e-04 DIIS
   @DF-RHF iter   4:  -188.79433333427738   -1.12523e-03   1.20575e-04 DIIS
   @DF-RHF iter   5:  -188.79460693815017   -2.73604e-04   2.85922e-05 DIIS
   @DF-RHF iter   6:  -188.79464514686487   -3.82087e-05   1.25301e-05 DIIS
   @DF-RHF iter   7:  -188.79465386925742   -8.72239e-06   4.28447e-06 DIIS
   @DF-RHF iter   8:  -188.79465474577509   -8.76518e-07   1.35202e-06 DIIS
   @DF-RHF iter   9:  -188.79465483189168   -8.61166e-08   3.64318e-07 DIIS
   @DF-RHF iter  10:  -188.79465483798819   -6.09651e-09   7.53437e-08 DIIS
   @DF-RHF iter  11:  -188.79465483822463   -2.36440e-10   1.24799e-08 DIIS
   @DF-RHF iter  12:  -188.79465483823131   -6.67910e-12   2.59346e-09 DIIS
  Energy and wave function converged.


  ==> Post-Iterations <==

    Orbital Energies [Eh]
    ---------------------

    Doubly Occupied:                                                      

       1A    -20.646133     2A    -20.572730     3A    -11.406679  
       4A     -1.484610     5A     -1.374912     6A     -0.903292  
       7A     -0.731613     8A     -0.712710     9A     -0.643002  
      10A     -0.596850    11A     -0.490956    12A     -0.470062  

    Virtual:                                                              

      13A      0.025233    14A      0.039892    15A      0.052131  
      16A      0.062289    17A      0.078009    18A      0.086232  
      19A      0.096788    20A      0.099000    21A      0.109255  
      22A      0.125759    23A      0.145436    24A      0.157854  
      25A      0.158686    26A      0.164217    27A      0.172368  
      28A      0.181450    29A      0.190891    30A      0.211095  
      31A      0.229291    32A      0.246971    33A      0.253607  
      34A      0.258677    35A      0.265951    36A      0.280411  
      37A      0.300455    38A      0.308457    39A      0.312939  
      40A      0.334551    41A      0.354453    42A      0.374599  
      43A      0.381524    44A      0.388163    45A      0.397826  
      46A      0.417362    47A      0.422963    48A      0.441619  
      49A      0.442084    50A      0.455708    51A      0.482592  
      52A      0.487524    53A      0.493221    54A      0.502009  
      55A      0.523433    56A      0.551235    57A      0.569811  
      58A      0.582231    59A      0.589979    60A      0.596762  
      61A      0.622639    62A      0.626375    63A      0.631855  
      64A      0.654167    65A      0.662258    66A      0.684947  
      67A      0.692480    68A      0.703909    69A      0.732365  
      70A      0.753670    71A      0.777758    72A      0.782776  
      73A      0.791709    74A      0.843907    75A      0.845263  
      76A      0.859182    77A      0.887273    78A      0.915591  
      79A      0.930139    80A      0.990493    81A      0.999431  
      82A      1.003048    83A      1.021456    84A      1.033500  
      85A      1.106076    86A      1.121258    87A      1.131377  
      88A      1.148554    89A      1.164067    90A      1.164647  
      91A      1.212335    92A      1.219235    93A      1.234169  
      94A      1.239602    95A      1.246012    96A      1.288361  
      97A      1.326886    98A      1.329816    99A      1.361975  
     100A      1.378511   101A      1.406167   102A      1.410775  
     103A      1.443312   104A      1.476430   105A      1.500089  
     106A      1.531250   107A      1.556117   108A      1.616057  
     109A      1.653782   110A      1.666261   111A      1.680435  
     112A      1.732127   113A      1.775662   114A      1.784252  
     115A      1.796073   116A      1.885414   117A      1.992316  
     118A      2.052745   119A      2.074527   120A      2.083981  
     121A      2.114995   122A      2.157034   123A      2.172266  
     124A      2.207787   125A      2.260950   126A      2.290524  
     127A      2.333817   128A      2.380256   129A      2.381359  
     130A      2.399014   131A      2.478946   132A      2.500566  
     133A      2.542025   134A      2.615807   135A      2.718759  
     136A      2.738295   137A      2.807170   138A      2.808705  
     139A      2.901139   140A      2.922584   141A      3.021037  
     142A      3.056178   143A      3.114915   144A      3.182368  
     145A      3.222480   146A      3.229560   147A      3.244342  
     148A      3.377816   149A      3.473103   150A      3.528013  
     151A      3.649274   152A      3.678770   153A      3.701573  
     154A      3.723947   155A      3.751779   156A      3.758041  
     157A      3.771079   158A      3.818411   159A      3.829774  
     160A      3.885909   161A      3.995769   162A      4.076721  
     163A      4.230983   164A      4.264998   165A      4.409287  
     166A      4.551311   167A      4.576224   168A      4.590821  
     169A      4.759288   170A      4.928470   171A      5.035424  
     172A      5.040439   173A      5.209735   174A      5.278724  
     175A      5.838710   176A      5.935735   177A      6.095947  
     178A      6.293039   179A      6.450275   180A      7.079095  
     181A     18.614842   182A     25.489188   183A     33.495294  

    Final Occupation by Irrep:
              A 
    DOCC [    12 ]

  @DF-RHF Final Energy:  -188.79465483823131

   => Energetics <=

    Nuclear Repulsion Energy =             70.0880274513038870
    One-Electron Energy =                -397.6982680559630694
    Two-Electron Energy =                 138.8155857664278585
    Total Energy =                       -188.7946548382313097

Computation Completed


Properties will be evaluated at   0.000000,   0.000000,   0.000000 [a0]

Properties computed using the SCF density matrix

  Nuclear Dipole Moment: [e a0]
     X:   -67.3834      Y:     4.0289      Z:    -0.0000

  Electronic Dipole Moment: [e a0]
     X:    67.2445      Y:    -4.8296      Z:     0.0000

  Dipole Moment: [e a0]
     X:    -0.1389      Y:    -0.8007      Z:    -0.0000     Total:     0.8126

  Dipole Moment: [D]
     X:    -0.3531      Y:    -2.0351      Z:    -0.0000     Total:     2.0655


*** tstop() called on g2-node38.bme.utexas.edu at Mon Sep  9 15:39:24 2019
Module time:
	user time   =       9.63 seconds =       0.16 minutes
	system time =       0.43 seconds =       0.01 minutes
	total time  =          3 seconds =       0.05 minutes
Total time:
	user time   =      28.23 seconds =       0.47 minutes
	system time =       1.17 seconds =       0.02 minutes
	total time  =          9 seconds =       0.15 minutes

  //>>>>>>>>>>>>>>>>>>>>>>>>>>>>>>>>>>>//
  //            Monomer B HF           //
  //<<<<<<<<<<<<<<<<<<<<<<<<<<<<<<<<<<<//


*** tstart() called on g2-node38.bme.utexas.edu
*** at Mon Sep  9 15:39:24 2019

   => Loading Basis Set <=

    Name: AUG-CC-PVDZ
    Role: ORBITAL
    Keyword: BASIS
    atoms 1, 6           entry C          line   178 file /home/xy3866/psi4conda/share/psi4/basis/aug-cc-pvdz.gbs 
    atoms 2, 5, 7, 10-11 entry H          line    36 file /home/xy3866/psi4conda/share/psi4/basis/aug-cc-pvdz.gbs 
    atoms 3-4, 8         entry O          line   250 file /home/xy3866/psi4conda/share/psi4/basis/aug-cc-pvdz.gbs 
    atoms 9              entry N          line   214 file /home/xy3866/psi4conda/share/psi4/basis/aug-cc-pvdz.gbs 


         ---------------------------------------------------------
                                   SCF
               by Justin Turney, Rob Parrish, Andy Simmonett
                          and Daniel G. A. Smith
                              RHF Reference
                        4 Threads,  30517 MiB Core
         ---------------------------------------------------------

  ==> Geometry <==

    Molecular point group: c1
    Full point group: C1

    Geometry (in Angstrom), charge = 0, multiplicity = 1:

       Center              X                  Y                   Z               Mass       
    ------------   -----------------  -----------------  -----------------  -----------------
      Gh(C)          -1.872902917399     0.214392333890    -0.000001185571    12.000000000000
      Gh(H)          -2.965859917399     0.230558333890     0.000000814429     1.007825032230
      Gh(O)          -1.203123917399     1.230320333890    -0.000000185571    15.994914619570
      Gh(O)          -1.425314917399    -1.024638666110    -0.000001185571    15.994914619570
      Gh(H)          -0.426968917399    -1.030345666110    -0.000001185571     1.007825032230
         C            1.894030782601    -0.254948666110     0.000002814429    12.000000000000
         H            2.976726782601    -0.426974666110    -0.000001185571     1.007825032230
         O            1.104641782601    -1.198081666110    -0.000000285571    15.994914619570
         N            1.549197782601     1.038203333890     0.000000714429    14.003074004430
         H            0.563792782601     1.289523333890    -0.000000285571     1.007825032230
         H            2.259411782601     1.745083333890    -0.000001185571     1.007825032230

  Running in c1 symmetry.

  Rotational constants: A =      0.19573  B =      0.07745  C =      0.05549 [cm^-1]
  Rotational constants: A =   5867.71753  B =   2321.77325  C =   1663.53561 [MHz]
  Nuclear repulsion =   71.226316789143596

  Charge       = 0
  Multiplicity = 1
  Electrons    = 24
  Nalpha       = 12
  Nbeta        = 12

  ==> Algorithm <==

  SCF Algorithm Type is DF.
  DIIS enabled.
  MOM disabled.
  Fractional occupation disabled.
  Guess Type is SAD.
  Energy threshold   = 1.00e-08
  Density threshold  = 1.00e-08
  Integral threshold = 0.00e+00

  ==> Primary Basis <==

  Basis Set: AUG-CC-PVDZ
    Blend: AUG-CC-PVDZ
    Number of shells: 79
    Number of basis function: 183
    Number of Cartesian functions: 195
    Spherical Harmonics?: true
    Max angular momentum: 2

   => Loading Basis Set <=

    Name: (AUG-CC-PVDZ AUX)
    Role: JKFIT
    Keyword: DF_BASIS_SCF
    atoms 1, 6           entry C          line   154 file /home/xy3866/psi4conda/share/psi4/basis/aug-cc-pvdz-jkfit.gbs 
    atoms 2, 5, 7, 10-11 entry H          line    70 file /home/xy3866/psi4conda/share/psi4/basis/aug-cc-pvdz-jkfit.gbs 
    atoms 3-4, 8         entry O          line   270 file /home/xy3866/psi4conda/share/psi4/basis/aug-cc-pvdz-jkfit.gbs 
    atoms 9              entry N          line   212 file /home/xy3866/psi4conda/share/psi4/basis/aug-cc-pvdz-jkfit.gbs 

  ==> Pre-Iterations <==

   -------------------------------------------------------
    Irrep   Nso     Nmo     Nalpha   Nbeta   Ndocc  Nsocc
   -------------------------------------------------------
     A        183     183       0       0       0       0
   -------------------------------------------------------
    Total     183     183      12      12      12       0
   -------------------------------------------------------

  ==> Integral Setup <==

  ==> DiskDFJK: Density-Fitted J/K Matrices <==

    J tasked:                  Yes
    K tasked:                  Yes
    wK tasked:                  No
    OpenMP threads:              4
    Integrals threads:           4
    Memory [MiB]:            22888
    Algorithm:                Core
    Integral Cache:           LOAD
    Schwarz Cutoff:          1E-12
    Fitting Condition:       1E-10

   => Auxiliary Basis Set <=

  Basis Set: (AUG-CC-PVDZ AUX)
    Blend: AUG-CC-PVDZ-JKFIT
    Number of shells: 228
    Number of basis function: 676
    Number of Cartesian functions: 781
    Spherical Harmonics?: true
    Max angular momentum: 3

  Minimum eigenvalue in the overlap matrix is 2.6793245320E-04.
  Using Symmetric Orthogonalization.

  SCF Guess: Superposition of Atomic Densities via on-the-fly atomic UHF.

  ==> Iterations <==

                           Total Energy        Delta E     RMS |[F,P]|

   @DF-RHF iter SAD:  -168.17979753878629   -1.68180e+02   0.00000e+00 
   @DF-RHF iter   1:  -168.83873377186214   -6.58936e-01   2.83739e-03 DIIS
   @DF-RHF iter   2:  -168.91732772423151   -7.85940e-02   1.89653e-03 DIIS
   @DF-RHF iter   3:  -168.96068821826822   -4.33605e-02   2.83225e-04 DIIS
   @DF-RHF iter   4:  -168.96215083327675   -1.46262e-03   1.18277e-04 DIIS
   @DF-RHF iter   5:  -168.96244178256899   -2.90949e-04   2.31987e-05 DIIS
   @DF-RHF iter   6:  -168.96246981590326   -2.80333e-05   1.12462e-05 DIIS
   @DF-RHF iter   7:  -168.96247580557113   -5.98967e-06   4.36821e-06 DIIS
   @DF-RHF iter   8:  -168.96247676942363   -9.63853e-07   1.32925e-06 DIIS
   @DF-RHF iter   9:  -168.96247685698418   -8.75606e-08   3.50395e-07 DIIS
   @DF-RHF iter  10:  -168.96247686318031   -6.19613e-09   7.87623e-08 DIIS
   @DF-RHF iter  11:  -168.96247686345103   -2.70717e-10   1.38061e-08 DIIS
   @DF-RHF iter  12:  -168.96247686345839   -7.36122e-12   2.61293e-09 DIIS
  Energy and wave function converged.


  ==> Post-Iterations <==

    Orbital Energies [Eh]
    ---------------------

    Doubly Occupied:                                                      

       1A    -20.536738     2A    -15.609788     3A    -11.365493  
       4A     -1.380468     5A     -1.231106     6A     -0.856679  
       7A     -0.759928     8A     -0.678243     9A     -0.603387  
      10A     -0.571769    11A     -0.433972    12A     -0.420567  

    Virtual:                                                              

      13A      0.024119    14A      0.035564    15A      0.048446  
      16A      0.066434    17A      0.078906    18A      0.086137  
      19A      0.102154    20A      0.106800    21A      0.119673  
      22A      0.130372    23A      0.147020    24A      0.156186  
      25A      0.160665    26A      0.166449    27A      0.173571  
      28A      0.188022    29A      0.202280    30A      0.228413  
      31A      0.229797    32A      0.236572    33A      0.241697  
      34A      0.250281    35A      0.277007    36A      0.286068  
      37A      0.308271    38A      0.317447    39A      0.322245  
      40A      0.329852    41A      0.353676    42A      0.354588  
      43A      0.363600    44A      0.378627    45A      0.387281  
      46A      0.417835    47A      0.427507    48A      0.440781  
      49A      0.445914    50A      0.468659    51A      0.480208  
      52A      0.510445    53A      0.512440    54A      0.531400  
      55A      0.539839    56A      0.548521    57A      0.560241  
      58A      0.593920    59A      0.603774    60A      0.623934  
      61A      0.625229    62A      0.628899    63A      0.651259  
      64A      0.669570    65A      0.676972    66A      0.680816  
      67A      0.701658    68A      0.706633    69A      0.712306  
      70A      0.735152    71A      0.747280    72A      0.770353  
      73A      0.800436    74A      0.811178    75A      0.824435  
      76A      0.834282    77A      0.859616    78A      0.912830  
      79A      0.944594    80A      0.969734    81A      0.977636  
      82A      0.985455    83A      1.008935    84A      1.023109  
      85A      1.063305    86A      1.074624    87A      1.129410  
      88A      1.130808    89A      1.145654    90A      1.210542  
      91A      1.259001    92A      1.267962    93A      1.278930  
      94A      1.327746    95A      1.344304    96A      1.372768  
      97A      1.380218    98A      1.391697    99A      1.427685  
     100A      1.433638   101A      1.452487   102A      1.458924  
     103A      1.483377   104A      1.495583   105A      1.504682  
     106A      1.577987   107A      1.586811   108A      1.589638  
     109A      1.619539   110A      1.645209   111A      1.661387  
     112A      1.704926   113A      1.746367   114A      1.768191  
     115A      1.779603   116A      1.850396   117A      1.922252  
     118A      1.957183   119A      2.014385   120A      2.031857  
     121A      2.062298   122A      2.078492   123A      2.108261  
     124A      2.109349   125A      2.235608   126A      2.280140  
     127A      2.315368   128A      2.331348   129A      2.344074  
     130A      2.369674   131A      2.399176   132A      2.444098  
     133A      2.496531   134A      2.561735   135A      2.581267  
     136A      2.630776   137A      2.671900   138A      2.736908  
     139A      2.781060   140A      2.819002   141A      2.827171  
     142A      2.867893   143A      2.898594   144A      2.996823  
     145A      3.038174   146A      3.106823   147A      3.180719  
     148A      3.245958   149A      3.303886   150A      3.319252  
     151A      3.441740   152A      3.519002   153A      3.542882  
     154A      3.684857   155A      3.788651   156A      3.860703  
     157A      3.875231   158A      3.897657   159A      4.051458  
     160A      4.233325   161A      4.302229   162A      4.473569  
     163A      4.620807   164A      4.870398   165A      4.937501  
     166A      4.983603   167A      5.022963   168A      5.025811  
     169A      5.065462   170A      5.120306   171A      5.317175  
     172A      5.572093   173A      5.760301   174A      5.807967  
     175A      5.912606   176A      5.991277   177A      6.308590  
     178A      6.717214   179A      7.044056   180A      7.261363  
     181A     18.606538   182A     33.515713   183A     33.621185  

    Final Occupation by Irrep:
              A 
    DOCC [    12 ]

  @DF-RHF Final Energy:  -168.96247686345839

   => Energetics <=

    Nuclear Repulsion Energy =             71.2263167891435955
    One-Electron Energy =                -371.4813130210883969
    Two-Electron Energy =                 131.2925193684864098
    Total Energy =                       -168.9624768634583916

Computation Completed


Properties will be evaluated at   0.000000,   0.000000,   0.000000 [a0]

Properties computed using the SCF density matrix

  Nuclear Dipole Moment: [e a0]
     X:    69.6282      Y:    -2.3419      Z:     0.0000

  Electronic Dipole Moment: [e a0]
     X:   -68.8943      Y:     3.9463      Z:    -0.0000

  Dipole Moment: [e a0]
     X:     0.7338      Y:     1.6044      Z:    -0.0000     Total:     1.7642

  Dipole Moment: [D]
     X:     1.8652      Y:     4.0779      Z:    -0.0000     Total:     4.4842


*** tstop() called on g2-node38.bme.utexas.edu at Mon Sep  9 15:39:28 2019
Module time:
	user time   =      10.48 seconds =       0.17 minutes
	system time =       0.48 seconds =       0.01 minutes
	total time  =          4 seconds =       0.07 minutes
Total time:
	user time   =      38.73 seconds =       0.65 minutes
	system time =       1.65 seconds =       0.03 minutes
	total time  =         13 seconds =       0.22 minutes
  Constructing Basis Sets for SAPT...

   => Loading Basis Set <=

    Name: (AUG-CC-PVDZ AUX)
    Role: RIFIT
    Keyword: DF_BASIS_SAPT
    atoms 1, 6           entry C          line   112 file /home/xy3866/psi4conda/share/psi4/basis/aug-cc-pvdz-ri.gbs 
    atoms 2, 5, 7, 10-11 entry H          line    30 file /home/xy3866/psi4conda/share/psi4/basis/aug-cc-pvdz-ri.gbs 
    atoms 3-4, 8         entry O          line   204 file /home/xy3866/psi4conda/share/psi4/basis/aug-cc-pvdz-ri.gbs 
    atoms 9              entry N          line   158 file /home/xy3866/psi4conda/share/psi4/basis/aug-cc-pvdz-ri.gbs 


  //>>>>>>>>>>>>>>>>>>>>>>>>>>>>>>>>>>>//
  //               SAPT2+              //
  //<<<<<<<<<<<<<<<<<<<<<<<<<<<<<<<<<<<//


*** tstart() called on g2-node38.bme.utexas.edu
*** at Mon Sep  9 15:39:28 2019

        SAPT2+  
    Ed Hohenstein
     6 June 2009

      Orbital Information
  --------------------------
    NSO        =       183
    NMO        =       183
    NRI        =       547
    NOCC A     =        12
    NOCC B     =        12
    FOCC A     =         3
    FOCC B     =         3
    NVIR A     =       171
    NVIR B     =       171

    Estimated memory usage: 229.0 MB

    Natural Orbital Cutoff:   1.000E-06
    Disp(T3) Truncation:            Yes
    CCD (vv|vv) Truncation:         Yes
    MBPT T2 Truncation:             Yes

    Monomer A: 86 virtual orbitals dropped
    Monomer B: 79 virtual orbitals dropped

    Elst10,r            =    -0.059059792034 [Eh]
    Exch10 (S^2)        =     0.068419579454 [Eh]
    Exch10              =     0.069965540979 [Eh]
    Ind20,r (A<-B)      =    -0.015171073482 [Eh]
    Ind20,r (B<-A)      =    -0.021992368787 [Eh]
    Ind20,r             =    -0.037163442269 [Eh]
    Exch-Ind20,r (A<-B) =     0.009226931993 [Eh]
    Exch-Ind20,r (B<-A) =     0.010800301045 [Eh]
    Exch-Ind20,r        =     0.020027233039 [Eh]
    Disp20              =    -0.017914551588 [Eh]
    Disp20 (NO)         =    -0.016468138780 [Eh]
    Exch-Disp20         =     0.003833128165 [Eh]
    Elst12,r            =     0.001347232412 [Eh]
    Exch11              =    -0.000297454452 [Eh]
    Exch12              =     0.011226980741 [Eh]
    Ind22               =    -0.006241665335 [Eh]
    Disp21              =     0.001872159637 [Eh]
    Disp22 (SDQ)        =    -0.001115085709 [Eh]

    (i =   1 of   9)          2 seconds
    (i =   2 of   9)          4 seconds
    (i =   3 of   9)          6 seconds
    (i =   4 of   9)          8 seconds
    (i =   5 of   9)         10 seconds
    (i =   6 of   9)         11 seconds
    (i =   7 of   9)         13 seconds
    (i =   8 of   9)         15 seconds
    (i =   9 of   9)         17 seconds

    Disp220 (T)         =    -0.001481983201 [Eh]

    (i =   1 of   9)          2 seconds
    (i =   2 of   9)          5 seconds
    (i =   3 of   9)          7 seconds
    (i =   4 of   9)          9 seconds
    (i =   5 of   9)         10 seconds
    (i =   6 of   9)         12 seconds
    (i =   7 of   9)         14 seconds
    (i =   8 of   9)         16 seconds
    (i =   9 of   9)         18 seconds

    Disp202 (T)         =    -0.001356654078 [Eh]

    Disp22 (T)          =    -0.002838637279 [Eh]

    Est. Disp220 (T)    =    -0.001612147241 [Eh]
    Est. Disp202 (T)    =    -0.001475810339 [Eh]

    Est. Disp22 (T)     =    -0.003087957580 [Eh]

    SAPT Results 
  --------------------------------------------------------------------------------------------------------
    Electrostatics                -57.71255962 [mEh]     -36.21517792 [kcal/mol]    -151.52430441 [kJ/mol]
      Elst10,r                    -59.05979203 [mEh]     -37.06057902 [kcal/mol]    -155.06146262 [kJ/mol]
      Elst12,r                      1.34723241 [mEh]       0.84540110 [kcal/mol]       3.53715821 [kJ/mol]

    Exchange                       80.89506727 [mEh]      50.76242109 [kcal/mol]     212.38996985 [kJ/mol]
      Exch10                       69.96554098 [mEh]      43.90403980 [kcal/mol]     183.69450253 [kJ/mol]
      Exch10(S^2)                  68.41957945 [mEh]      42.93393430 [kcal/mol]     179.63558111 [kJ/mol]
      Exch11(S^2)                  -0.29745445 [mEh]      -0.18665549 [kcal/mol]      -0.78096656 [kJ/mol]
      Exch12(S^2)                  11.22698074 [mEh]       7.04503678 [kcal/mol]      29.47643388 [kJ/mol]

    Induction                     -33.55261577 [mEh]     -21.05458426 [kcal/mol]     -88.09238055 [kJ/mol]
      Ind20,r                     -37.16344227 [mEh]     -23.32041210 [kcal/mol]     -97.57260423 [kJ/mol]
      Ind22                        -6.24166533 [mEh]      -3.91670413 [kcal/mol]     -16.38749008 [kJ/mol]
      Exch-Ind20,r                 20.02723304 [mEh]      12.56727847 [kcal/mol]      52.58149310 [kJ/mol]
      Exch-Ind22                    3.36360893 [mEh]       2.11069647 [kcal/mol]       8.83115402 [kJ/mol]
      delta HF,r (2)              -13.53835013 [mEh]      -8.49544296 [kcal/mol]     -35.54493336 [kJ/mol]

    Dispersion                    -16.41230707 [mEh]     -10.29887818 [kcal/mol]     -43.09050629 [kJ/mol]
      Disp20                      -17.91455159 [mEh]     -11.24155084 [kcal/mol]     -47.03464871 [kJ/mol]
      Disp21                        1.87215964 [mEh]       1.17479791 [kcal/mol]       4.91535445 [kJ/mol]
      Disp22 (SDQ)                 -1.11508571 [mEh]      -0.69972685 [kcal/mol]      -2.92765713 [kJ/mol]
      Disp22 (T)                   -2.83863728 [mEh]      -1.78127179 [kcal/mol]      -7.45284115 [kJ/mol]
      Est. Disp22 (T)              -3.08795758 [mEh]      -1.93772264 [kcal/mol]      -8.10743151 [kJ/mol]
      Exch-Disp20                   3.83312817 [mEh]       2.40532424 [kcal/mol]      10.06387661 [kJ/mol]

  Total HF                        -19.76881041 [mEh]     -12.40511582 [kcal/mol]     -51.90300459 [kJ/mol]
  Total SAPT0                     -33.85023384 [mEh]     -21.24134242 [kcal/mol]     -88.87377669 [kJ/mol]
  Total SAPT2                     -24.45153154 [mEh]     -15.34356769 [kcal/mol]     -64.19748722 [kJ/mol]
  Total SAPT2+                    -26.78241519 [mEh]     -16.80621926 [kcal/mol]     -70.31722140 [kJ/mol]

  Special recipe for scaled SAPT0 (see Manual):
    Electrostatics sSAPT0         -59.05979203 [mEh]     -37.06057902 [kcal/mol]    -155.06146262 [kJ/mol]
    Exchange sSAPT0                69.96554098 [mEh]      43.90403980 [kcal/mol]     183.69450253 [kJ/mol]
    Induction sSAPT0              -29.28608919 [mEh]     -18.37729842 [kcal/mol]     -76.89061658 [kJ/mol]
    Dispersion sSAPT0             -13.81567607 [mEh]      -8.66946762 [kcal/mol]     -36.27305253 [kJ/mol]
  Total sSAPT0                    -32.19601632 [mEh]     -20.20330526 [kcal/mol]     -84.53062920 [kJ/mol]
  --------------------------------------------------------------------------------------------------------

*** tstop() called on g2-node38.bme.utexas.edu at Mon Sep  9 15:40:26 2019
Module time:
	user time   =     221.25 seconds =       3.69 minutes
	system time =       8.70 seconds =       0.14 minutes
	total time  =         58 seconds =       0.97 minutes
Total time:
	user time   =     260.45 seconds =       4.34 minutes
	system time =      10.43 seconds =       0.17 minutes
	total time  =         71 seconds =       1.18 minutes

    Psi4 stopped on: Monday, 09 September 2019 03:40PM
    Psi4 wall time for execution: 0:01:10.79

*** Psi4 exiting successfully. Buy a developer a beer!
