
    -----------------------------------------------------------------------
          Psi4: An Open-Source Ab Initio Electronic Structure Package
                               Psi4 1.3.2 release

                         Git: Rev {HEAD} ecbda83 


    R. M. Parrish, L. A. Burns, D. G. A. Smith, A. C. Simmonett,
    A. E. DePrince III, E. G. Hohenstein, U. Bozkaya, A. Yu. Sokolov,
    R. Di Remigio, R. M. Richard, J. F. Gonthier, A. M. James,
    H. R. McAlexander, A. Kumar, M. Saitow, X. Wang, B. P. Pritchard,
    P. Verma, H. F. Schaefer III, K. Patkowski, R. A. King, E. F. Valeev,
    F. A. Evangelista, J. M. Turney, T. D. Crawford, and C. D. Sherrill,
    J. Chem. Theory Comput. 13(7) pp 3185--3197 (2017).
    (doi: 10.1021/acs.jctc.7b00174)


                         Additional Contributions by
    P. Kraus, H. Kruse, M. H. Lechner, M. C. Schieber, R. A. Shaw,
    A. Alenaizan, R. Galvelis, Z. L. Glick, S. Lehtola, and J. P. Misiewicz

    -----------------------------------------------------------------------


    Psi4 started on: Monday, 09 September 2019 02:25PM

    Process ID: 90916
    Host:       g2-node38.bme.utexas.edu
    PSIDATADIR: /home/xy3866/psi4conda/share/psi4
    Memory:     500.0 MiB
    Threads:    4
    
  ==> Input File <==

--------------------------------------------------------------------------
#psi4
#
memory 32 gb

molecule  {
0 1
  C       -2.0482690     0.2828850     0.0000130
  H       -3.1457830     0.3491130    -0.0000080
  O       -1.3512910     1.2933720    -0.0000010
  N       -1.5923150    -0.9782630     0.0000040
  H       -0.5837530    -1.1752650     0.0000030
  H       -2.2528990    -1.7321960    -0.0000070
--
0 1
  C        2.0621080    -0.2554320     0.0000040
  H        3.1520200    -0.2817000     0.0000000
  N        1.3302020    -1.3170910     0.0000020
  H        1.9299670    -2.1334100    -0.0000040
  N        1.5499330     0.9895100     0.0000000
  H        0.5432930     1.1394860    -0.0000010
  H        2.1658200     1.7770630    -0.0000050
units angstrom
no_reorient  #important for SAPT in psi4, default
symmetry c1  #important for SAPT in psi4, default
}

set {
basis aug-cc-pVDZ
scf_type DF
freeze_core True
}
energy('sapt2+')
--------------------------------------------------------------------------

  Memory set to  29.802 GiB by Python driver.

  //>>>>>>>>>>>>>>>>>>>>>>>>>>>>>>>>>>>//
  //              Dimer HF             //
  //<<<<<<<<<<<<<<<<<<<<<<<<<<<<<<<<<<<//


*** tstart() called on g2-node38.bme.utexas.edu
*** at Mon Sep  9 14:25:51 2019

   => Loading Basis Set <=

    Name: AUG-CC-PVDZ
    Role: ORBITAL
    Keyword: BASIS
    atoms 1, 7                 entry C          line   178 file /home/xy3866/psi4conda/share/psi4/basis/aug-cc-pvdz.gbs 
    atoms 2, 5-6, 8, 10, 12-13 entry H          line    36 file /home/xy3866/psi4conda/share/psi4/basis/aug-cc-pvdz.gbs 
    atoms 3                    entry O          line   250 file /home/xy3866/psi4conda/share/psi4/basis/aug-cc-pvdz.gbs 
    atoms 4, 9, 11             entry N          line   214 file /home/xy3866/psi4conda/share/psi4/basis/aug-cc-pvdz.gbs 


         ---------------------------------------------------------
                                   SCF
               by Justin Turney, Rob Parrish, Andy Simmonett
                          and Daniel G. A. Smith
                              RHF Reference
                        4 Threads,  30517 MiB Core
         ---------------------------------------------------------

  ==> Geometry <==

    Molecular point group: c1
    Full point group: C1

    Geometry (in Angstrom), charge = 0, multiplicity = 1:

       Center              X                  Y                   Z               Mass       
    ------------   -----------------  -----------------  -----------------  -----------------
         C           -2.030399260614     0.275496899830     0.000010194538    12.000000000000
         H           -3.127913260614     0.341724899830    -0.000010805462     1.007825032230
         O           -1.333421260614     1.285983899830    -0.000003805462    15.994914619570
         N           -1.574445260614    -0.985651100170     0.000001194538    14.003074004430
         H           -0.565883260614    -1.182653100170     0.000000194538     1.007825032230
         H           -2.235029260614    -1.739584100170    -0.000009805462     1.007825032230
         C            2.079977739386    -0.262820100170     0.000001194538    12.000000000000
         H            3.169889739386    -0.289088100170    -0.000002805462     1.007825032230
         N            1.348071739386    -1.324479100170    -0.000000805462    14.003074004430
         H            1.947836739386    -2.140798100170    -0.000006805462     1.007825032230
         N            1.567802739386     0.982121899830    -0.000002805462    14.003074004430
         H            0.561162739386     1.132097899830    -0.000003805462     1.007825032230
         H            2.183689739386     1.769674899830    -0.000007805462     1.007825032230

  Running in c1 symmetry.

  Rotational constants: A =      0.18459  B =      0.06460  C =      0.04785 [cm^-1]
  Rotational constants: A =   5533.74481  B =   1936.58331  C =   1434.54982 [MHz]
  Nuclear repulsion =  229.222028121353304

  Charge       = 0
  Multiplicity = 1
  Electrons    = 48
  Nalpha       = 24
  Nbeta        = 24

  ==> Algorithm <==

  SCF Algorithm Type is DF.
  DIIS enabled.
  MOM disabled.
  Fractional occupation disabled.
  Guess Type is SAD.
  Energy threshold   = 1.00e-08
  Density threshold  = 1.00e-08
  Integral threshold = 0.00e+00

  ==> Primary Basis <==

  Basis Set: AUG-CC-PVDZ
    Blend: AUG-CC-PVDZ
    Number of shells: 89
    Number of basis function: 201
    Number of Cartesian functions: 213
    Spherical Harmonics?: true
    Max angular momentum: 2

   => Loading Basis Set <=

    Name: (AUG-CC-PVDZ AUX)
    Role: JKFIT
    Keyword: DF_BASIS_SCF
    atoms 1, 7                 entry C          line   154 file /home/xy3866/psi4conda/share/psi4/basis/aug-cc-pvdz-jkfit.gbs 
    atoms 2, 5-6, 8, 10, 12-13 entry H          line    70 file /home/xy3866/psi4conda/share/psi4/basis/aug-cc-pvdz-jkfit.gbs 
    atoms 3                    entry O          line   270 file /home/xy3866/psi4conda/share/psi4/basis/aug-cc-pvdz-jkfit.gbs 
    atoms 4, 9, 11             entry N          line   212 file /home/xy3866/psi4conda/share/psi4/basis/aug-cc-pvdz-jkfit.gbs 

  ==> Pre-Iterations <==

   -------------------------------------------------------
    Irrep   Nso     Nmo     Nalpha   Nbeta   Ndocc  Nsocc
   -------------------------------------------------------
     A        201     201       0       0       0       0
   -------------------------------------------------------
    Total     201     201      24      24      24       0
   -------------------------------------------------------

  ==> Integral Setup <==

  ==> DiskDFJK: Density-Fitted J/K Matrices <==

    J tasked:                  Yes
    K tasked:                  Yes
    wK tasked:                  No
    OpenMP threads:              4
    Integrals threads:           4
    Memory [MiB]:            22888
    Algorithm:                Core
    Integral Cache:           SAVE
    Schwarz Cutoff:          1E-12
    Fitting Condition:       1E-10

   => Auxiliary Basis Set <=

  Basis Set: (AUG-CC-PVDZ AUX)
    Blend: AUG-CC-PVDZ-JKFIT
    Number of shells: 252
    Number of basis function: 740
    Number of Cartesian functions: 851
    Spherical Harmonics?: true
    Max angular momentum: 3

  Minimum eigenvalue in the overlap matrix is 1.1909759391E-04.
  Using Symmetric Orthogonalization.

  SCF Guess: Superposition of Atomic Densities via on-the-fly atomic UHF.

  ==> Iterations <==

                           Total Energy        Delta E     RMS |[F,P]|

   @DF-RHF iter SAD:  -316.77139535054965   -3.16771e+02   0.00000e+00 
   @DF-RHF iter   1:  -317.85136122986427   -1.07997e+00   3.52553e-03 DIIS
   @DF-RHF iter   2:  -318.02067925691148   -1.69318e-01   2.03151e-03 DIIS
   @DF-RHF iter   3:  -318.08640675655874   -6.57275e-02   3.21736e-04 DIIS
   @DF-RHF iter   4:  -318.08884626359435   -2.43951e-03   1.44752e-04 DIIS
   @DF-RHF iter   5:  -318.08931087290722   -4.64609e-04   2.75447e-05 DIIS
   @DF-RHF iter   6:  -318.08935406311804   -4.31902e-05   1.35000e-05 DIIS
   @DF-RHF iter   7:  -318.08936372150885   -9.65839e-06   5.61544e-06 DIIS
   @DF-RHF iter   8:  -318.08936568463616   -1.96313e-06   2.08643e-06 DIIS
   @DF-RHF iter   9:  -318.08936592248165   -2.37845e-07   8.32120e-07 DIIS
   @DF-RHF iter  10:  -318.08936595964241   -3.71608e-08   2.55522e-07 DIIS
   @DF-RHF iter  11:  -318.08936596304613   -3.40373e-09   7.14419e-08 DIIS
   @DF-RHF iter  12:  -318.08936596332865   -2.82512e-10   1.74323e-08 DIIS
   @DF-RHF iter  13:  -318.08936596334195   -1.33014e-11   4.82087e-09 DIIS
  Energy and wave function converged.


  ==> Post-Iterations <==

    Orbital Energies [Eh]
    ---------------------

    Doubly Occupied:                                                      

       1A    -20.531958     2A    -15.578902     3A    -15.570506  
       4A    -15.532708     5A    -11.357860     6A    -11.327408  
       7A     -1.379380     8A     -1.257696     9A     -1.207831  
      10A     -1.140655    11A     -0.844982    12A     -0.821825  
      13A     -0.745299    14A     -0.733852    15A     -0.681006  
      16A     -0.627721    17A     -0.614506    18A     -0.597569  
      19A     -0.562052    20A     -0.523579    21A     -0.447703  
      22A     -0.417724    23A     -0.406659    24A     -0.358276  

    Virtual:                                                              

      25A      0.033298    26A      0.037426    27A      0.047416  
      28A      0.059528    29A      0.066900    30A      0.089633  
      31A      0.097085    32A      0.102413    33A      0.106249  
      34A      0.123883    35A      0.144139    36A      0.151851  
      37A      0.157426    38A      0.160003    39A      0.169107  
      40A      0.175017    41A      0.186098    42A      0.190922  
      43A      0.199569    44A      0.199599    45A      0.212344  
      46A      0.224264    47A      0.247309    48A      0.255555  
      49A      0.262806    50A      0.267827    51A      0.306133  
      52A      0.310850    53A      0.315626    54A      0.328357  
      55A      0.336771    56A      0.347738    57A      0.349054  
      58A      0.363725    59A      0.374148    60A      0.384118  
      61A      0.396116    62A      0.399514    63A      0.420627  
      64A      0.431505    65A      0.437189    66A      0.441760  
      67A      0.442300    68A      0.471573    69A      0.482856  
      70A      0.502677    71A      0.512319    72A      0.517618  
      73A      0.532743    74A      0.533527    75A      0.537550  
      76A      0.558023    77A      0.562061    78A      0.566895  
      79A      0.592408    80A      0.617836    81A      0.635366  
      82A      0.637890    83A      0.661797    84A      0.672365  
      85A      0.682393    86A      0.698298    87A      0.699139  
      88A      0.704067    89A      0.710192    90A      0.716679  
      91A      0.716834    92A      0.727447    93A      0.743562  
      94A      0.786897    95A      0.791058    96A      0.804032  
      97A      0.824420    98A      0.833482    99A      0.840776  
     100A      0.863947   101A      0.901825   102A      0.907331  
     103A      0.949005   104A      0.974070   105A      0.983882  
     106A      0.989326   107A      1.000011   108A      1.011090  
     109A      1.017651   110A      1.039125   111A      1.067549  
     112A      1.076520   113A      1.079353   114A      1.092729  
     115A      1.109838   116A      1.113365   117A      1.157826  
     118A      1.238388   119A      1.273879   120A      1.276019  
     121A      1.281917   122A      1.305385   123A      1.349845  
     124A      1.408434   125A      1.426295   126A      1.467775  
     127A      1.487023   128A      1.492562   129A      1.510606  
     130A      1.532055   131A      1.574820   132A      1.587174  
     133A      1.613673   134A      1.628748   135A      1.646843  
     136A      1.651443   137A      1.718580   138A      1.735950  
     139A      1.763329   140A      1.787555   141A      1.819203  
     142A      1.857726   143A      1.924032   144A      1.932250  
     145A      1.952134   146A      1.995294   147A      1.998446  
     148A      2.013567   149A      2.034098   150A      2.061103  
     151A      2.095231   152A      2.107996   153A      2.122332  
     154A      2.141711   155A      2.193667   156A      2.225204  
     157A      2.265903   158A      2.290000   159A      2.331610  
     160A      2.338232   161A      2.349304   162A      2.364935  
     163A      2.396827   164A      2.402831   165A      2.440304  
     166A      2.451803   167A      2.494203   168A      2.501933  
     169A      2.553608   170A      2.598916   171A      2.618338  
     172A      2.670916   173A      2.726410   174A      2.757122  
     175A      2.778579   176A      2.814872   177A      2.823487  
     178A      2.846258   179A      2.856157   180A      2.871048  
     181A      2.897382   182A      2.955237   183A      2.970060  
     184A      3.015633   185A      3.087013   186A      3.126462  
     187A      3.205095   188A      3.250738   189A      3.292660  
     190A      3.404850   191A      3.458687   192A      3.489159  
     193A      3.573973   194A      3.692714   195A      3.747534  
     196A      3.787046   197A      3.825177   198A      3.902224  
     199A      3.967355   200A      4.152595   201A      4.289037  

    Final Occupation by Irrep:
              A 
    DOCC [    24 ]

  @DF-RHF Final Energy:  -318.08936596334195

   => Energetics <=

    Nuclear Repulsion Energy =            229.2220281213533042
    One-Electron Energy =                -888.0874721670636518
    Two-Electron Energy =                 340.7760780823683717
    Total Energy =                       -318.0893659633419475

Computation Completed


Properties will be evaluated at   0.000000,   0.000000,   0.000000 [a0]

Properties computed using the SCF density matrix

  Nuclear Dipole Moment: [e a0]
     X:     1.8025      Y:    -1.9667      Z:    -0.0000

  Electronic Dipole Moment: [e a0]
     X:    -1.4239      Y:     1.3023      Z:     0.0000

  Dipole Moment: [e a0]
     X:     0.3786      Y:    -0.6644      Z:    -0.0000     Total:     0.7647

  Dipole Moment: [D]
     X:     0.9623      Y:    -1.6887      Z:    -0.0000     Total:     1.9436


*** tstop() called on g2-node38.bme.utexas.edu at Mon Sep  9 14:25:59 2019
Module time:
	user time   =      26.47 seconds =       0.44 minutes
	system time =       0.70 seconds =       0.01 minutes
	total time  =          8 seconds =       0.13 minutes
Total time:
	user time   =      26.47 seconds =       0.44 minutes
	system time =       0.70 seconds =       0.01 minutes
	total time  =          8 seconds =       0.13 minutes

  //>>>>>>>>>>>>>>>>>>>>>>>>>>>>>>>>>>>//
  //            Monomer A HF           //
  //<<<<<<<<<<<<<<<<<<<<<<<<<<<<<<<<<<<//


*** tstart() called on g2-node38.bme.utexas.edu
*** at Mon Sep  9 14:25:59 2019

   => Loading Basis Set <=

    Name: AUG-CC-PVDZ
    Role: ORBITAL
    Keyword: BASIS
    atoms 1, 7                 entry C          line   178 file /home/xy3866/psi4conda/share/psi4/basis/aug-cc-pvdz.gbs 
    atoms 2, 5-6, 8, 10, 12-13 entry H          line    36 file /home/xy3866/psi4conda/share/psi4/basis/aug-cc-pvdz.gbs 
    atoms 3                    entry O          line   250 file /home/xy3866/psi4conda/share/psi4/basis/aug-cc-pvdz.gbs 
    atoms 4, 9, 11             entry N          line   214 file /home/xy3866/psi4conda/share/psi4/basis/aug-cc-pvdz.gbs 


         ---------------------------------------------------------
                                   SCF
               by Justin Turney, Rob Parrish, Andy Simmonett
                          and Daniel G. A. Smith
                              RHF Reference
                        4 Threads,  30517 MiB Core
         ---------------------------------------------------------

  ==> Geometry <==

    Molecular point group: c1
    Full point group: C1

    Geometry (in Angstrom), charge = 0, multiplicity = 1:

       Center              X                  Y                   Z               Mass       
    ------------   -----------------  -----------------  -----------------  -----------------
         C           -2.030399260614     0.275496899830     0.000010194538    12.000000000000
         H           -3.127913260614     0.341724899830    -0.000010805462     1.007825032230
         O           -1.333421260614     1.285983899830    -0.000003805462    15.994914619570
         N           -1.574445260614    -0.985651100170     0.000001194538    14.003074004430
         H           -0.565883260614    -1.182653100170     0.000000194538     1.007825032230
         H           -2.235029260614    -1.739584100170    -0.000009805462     1.007825032230
      Gh(C)           2.079977739386    -0.262820100170     0.000001194538    12.000000000000
      Gh(H)           3.169889739386    -0.289088100170    -0.000002805462     1.007825032230
      Gh(N)           1.348071739386    -1.324479100170    -0.000000805462    14.003074004430
      Gh(H)           1.947836739386    -2.140798100170    -0.000006805462     1.007825032230
      Gh(N)           1.567802739386     0.982121899830    -0.000002805462    14.003074004430
      Gh(H)           0.561162739386     1.132097899830    -0.000003805462     1.007825032230
      Gh(H)           2.183689739386     1.769674899830    -0.000007805462     1.007825032230

  Running in c1 symmetry.

  Rotational constants: A =      0.18459  B =      0.06460  C =      0.04785 [cm^-1]
  Rotational constants: A =   5533.74481  B =   1936.58331  C =   1434.54982 [MHz]
  Nuclear repulsion =   71.120500652173703

  Charge       = 0
  Multiplicity = 1
  Electrons    = 24
  Nalpha       = 12
  Nbeta        = 12

  ==> Algorithm <==

  SCF Algorithm Type is DF.
  DIIS enabled.
  MOM disabled.
  Fractional occupation disabled.
  Guess Type is SAD.
  Energy threshold   = 1.00e-08
  Density threshold  = 1.00e-08
  Integral threshold = 0.00e+00

  ==> Primary Basis <==

  Basis Set: AUG-CC-PVDZ
    Blend: AUG-CC-PVDZ
    Number of shells: 89
    Number of basis function: 201
    Number of Cartesian functions: 213
    Spherical Harmonics?: true
    Max angular momentum: 2

   => Loading Basis Set <=

    Name: (AUG-CC-PVDZ AUX)
    Role: JKFIT
    Keyword: DF_BASIS_SCF
    atoms 1, 7                 entry C          line   154 file /home/xy3866/psi4conda/share/psi4/basis/aug-cc-pvdz-jkfit.gbs 
    atoms 2, 5-6, 8, 10, 12-13 entry H          line    70 file /home/xy3866/psi4conda/share/psi4/basis/aug-cc-pvdz-jkfit.gbs 
    atoms 3                    entry O          line   270 file /home/xy3866/psi4conda/share/psi4/basis/aug-cc-pvdz-jkfit.gbs 
    atoms 4, 9, 11             entry N          line   212 file /home/xy3866/psi4conda/share/psi4/basis/aug-cc-pvdz-jkfit.gbs 

  ==> Pre-Iterations <==

   -------------------------------------------------------
    Irrep   Nso     Nmo     Nalpha   Nbeta   Ndocc  Nsocc
   -------------------------------------------------------
     A        201     201       0       0       0       0
   -------------------------------------------------------
    Total     201     201      12      12      12       0
   -------------------------------------------------------

  ==> Integral Setup <==

  ==> DiskDFJK: Density-Fitted J/K Matrices <==

    J tasked:                  Yes
    K tasked:                  Yes
    wK tasked:                  No
    OpenMP threads:              4
    Integrals threads:           4
    Memory [MiB]:            22888
    Algorithm:                Core
    Integral Cache:           LOAD
    Schwarz Cutoff:          1E-12
    Fitting Condition:       1E-10

   => Auxiliary Basis Set <=

  Basis Set: (AUG-CC-PVDZ AUX)
    Blend: AUG-CC-PVDZ-JKFIT
    Number of shells: 252
    Number of basis function: 740
    Number of Cartesian functions: 851
    Spherical Harmonics?: true
    Max angular momentum: 3

  Minimum eigenvalue in the overlap matrix is 1.1909759391E-04.
  Using Symmetric Orthogonalization.

  SCF Guess: Superposition of Atomic Densities via on-the-fly atomic UHF.

  ==> Iterations <==

                           Total Energy        Delta E     RMS |[F,P]|

   @DF-RHF iter SAD:  -168.17154946982185   -1.68172e+02   0.00000e+00 
   @DF-RHF iter   1:  -168.83826308532704   -6.66714e-01   2.57982e-03 DIIS
   @DF-RHF iter   2:  -168.91696866177708   -7.87056e-02   1.72427e-03 DIIS
   @DF-RHF iter   3:  -168.96026187093645   -4.32932e-02   2.56427e-04 DIIS
   @DF-RHF iter   4:  -168.96172011757335   -1.45825e-03   1.08007e-04 DIIS
   @DF-RHF iter   5:  -168.96201367265567   -2.93555e-04   2.13540e-05 DIIS
   @DF-RHF iter   6:  -168.96204247203221   -2.87994e-05   1.03843e-05 DIIS
   @DF-RHF iter   7:  -168.96204864781066   -6.17578e-06   4.02399e-06 DIIS
   @DF-RHF iter   8:  -168.96204963190650   -9.84096e-07   1.21732e-06 DIIS
   @DF-RHF iter   9:  -168.96204971980666   -8.79002e-08   3.18720e-07 DIIS
   @DF-RHF iter  10:  -168.96204972595376   -6.14710e-09   7.14997e-08 DIIS
   @DF-RHF iter  11:  -168.96204972622320   -2.69438e-10   1.26853e-08 DIIS
   @DF-RHF iter  12:  -168.96204972623093   -7.73070e-12   2.40998e-09 DIIS
  Energy and wave function converged.


  ==> Post-Iterations <==

    Orbital Energies [Eh]
    ---------------------

    Doubly Occupied:                                                      

       1A    -20.537247     2A    -15.610488     3A    -11.366129  
       4A     -1.381367     5A     -1.229506     6A     -0.855198  
       7A     -0.756444     8A     -0.677563     9A     -0.603640  
      10A     -0.571629    11A     -0.434138    12A     -0.420860  

    Virtual:                                                              

      13A      0.022058    14A      0.033810    15A      0.045650  
      16A      0.059300    17A      0.066048    18A      0.085978  
      19A      0.086289    20A      0.101173    21A      0.103499  
      22A      0.103768    23A      0.125317    24A      0.135477  
      25A      0.149572    26A      0.157477    27A      0.159593  
      28A      0.164916    29A      0.170964    30A      0.175045  
      31A      0.189742    32A      0.201839    33A      0.210348  
      34A      0.212020    35A      0.221019    36A      0.241076  
      37A      0.250844    38A      0.265523    39A      0.294186  
      40A      0.306600    41A      0.313614    42A      0.323573  
      43A      0.340500    44A      0.354228    45A      0.356470  
      46A      0.359901    47A      0.381442    48A      0.392232  
      49A      0.400643    50A      0.422960    51A      0.443960  
      52A      0.448169    53A      0.448989    54A      0.458829  
      55A      0.464275    56A      0.471617    57A      0.483866  
      58A      0.484396    59A      0.499675    60A      0.505348  
      61A      0.512820    62A      0.519762    63A      0.531149  
      64A      0.570757    65A      0.575735    66A      0.582726  
      67A      0.585955    68A      0.599261    69A      0.618908  
      70A      0.626016    71A      0.643411    72A      0.658941  
      73A      0.669836    74A      0.676312    75A      0.684354  
      76A      0.685602    77A      0.711847    78A      0.729000  
      79A      0.759841    80A      0.761456    81A      0.789606  
      82A      0.800151    83A      0.817617    84A      0.820662  
      85A      0.838207    86A      0.875415    87A      0.878490  
      88A      0.890745    89A      0.908735    90A      0.956738  
      91A      0.977263    92A      0.982419    93A      1.001250  
      94A      1.011697    95A      1.028290    96A      1.041438  
      97A      1.066193    98A      1.072435    99A      1.108020  
     100A      1.119229   101A      1.145973   102A      1.156676  
     103A      1.173061   104A      1.174897   105A      1.201416  
     106A      1.217276   107A      1.239919   108A      1.240881  
     109A      1.287989   110A      1.290124   111A      1.319350  
     112A      1.340092   113A      1.356713   114A      1.386056  
     115A      1.407180   116A      1.417921   117A      1.482490  
     118A      1.505065   119A      1.508624   120A      1.543386  
     121A      1.569727   122A      1.591467   123A      1.630559  
     124A      1.696453   125A      1.745028   126A      1.761797  
     127A      1.915612   128A      1.928262   129A      1.993469  
     130A      2.014227   131A      2.072488   132A      2.080532  
     133A      2.099762   134A      2.099956   135A      2.173713  
     136A      2.187634   137A      2.244664   138A      2.255680  
     139A      2.315369   140A      2.322630   141A      2.331218  
     142A      2.372750   143A      2.373880   144A      2.379958  
     145A      2.415622   146A      2.442300   147A      2.446001  
     148A      2.459626   149A      2.515812   150A      2.563524  
     151A      2.589543   152A      2.599270   153A      2.655309  
     154A      2.736841   155A      2.764207   156A      2.777821  
     157A      2.782488   158A      2.833699   159A      2.851591  
     160A      2.909103   161A      2.995977   162A      3.011548  
     163A      3.066132   164A      3.077870   165A      3.153638  
     166A      3.211339   167A      3.255557   168A      3.365773  
     169A      3.401002   170A      3.428690   171A      3.452648  
     172A      3.495353   173A      3.582603   174A      3.586191  
     175A      3.597777   176A      3.647181   177A      3.675925  
     178A      3.746196   179A      3.767951   180A      3.786611  
     181A      3.800147   182A      3.834558   183A      3.911146  
     184A      4.010977   185A      4.136658   186A      4.173604  
     187A      4.230421   188A      4.391373   189A      4.578709  
     190A      4.581196   191A      4.631508   192A      4.646766  
     193A      5.194804   194A      5.420065   195A      5.673037  
     196A      6.042733   197A      6.262537   198A      6.355452  
     199A     18.615321   200A     25.351726   201A     25.492509  

    Final Occupation by Irrep:
              A 
    DOCC [    12 ]

  @DF-RHF Final Energy:  -168.96204972623093

   => Energetics <=

    Nuclear Repulsion Energy =             71.1205006521737033
    One-Electron Energy =                -371.2766824049672891
    Two-Electron Energy =                 131.1941320265626700
    Total Energy =                       -168.9620497262309300

Computation Completed


Properties will be evaluated at   0.000000,   0.000000,   0.000000 [a0]

Properties computed using the SCF density matrix

  Nuclear Dipole Moment: [e a0]
     X:   -75.2105      Y:     4.6502      Z:     0.0000

  Electronic Dipole Moment: [e a0]
     X:    74.6309      Y:    -6.3131      Z:    -0.0000

  Dipole Moment: [e a0]
     X:    -0.5796      Y:    -1.6629      Z:     0.0000     Total:     1.7610

  Dipole Moment: [D]
     X:    -1.4733      Y:    -4.2267      Z:     0.0000     Total:     4.4761


*** tstop() called on g2-node38.bme.utexas.edu at Mon Sep  9 14:26:04 2019
Module time:
	user time   =      14.42 seconds =       0.24 minutes
	system time =       0.55 seconds =       0.01 minutes
	total time  =          5 seconds =       0.08 minutes
Total time:
	user time   =      40.90 seconds =       0.68 minutes
	system time =       1.25 seconds =       0.02 minutes
	total time  =         13 seconds =       0.22 minutes

  //>>>>>>>>>>>>>>>>>>>>>>>>>>>>>>>>>>>//
  //            Monomer B HF           //
  //<<<<<<<<<<<<<<<<<<<<<<<<<<<<<<<<<<<//


*** tstart() called on g2-node38.bme.utexas.edu
*** at Mon Sep  9 14:26:04 2019

   => Loading Basis Set <=

    Name: AUG-CC-PVDZ
    Role: ORBITAL
    Keyword: BASIS
    atoms 1, 7                 entry C          line   178 file /home/xy3866/psi4conda/share/psi4/basis/aug-cc-pvdz.gbs 
    atoms 2, 5-6, 8, 10, 12-13 entry H          line    36 file /home/xy3866/psi4conda/share/psi4/basis/aug-cc-pvdz.gbs 
    atoms 3                    entry O          line   250 file /home/xy3866/psi4conda/share/psi4/basis/aug-cc-pvdz.gbs 
    atoms 4, 9, 11             entry N          line   214 file /home/xy3866/psi4conda/share/psi4/basis/aug-cc-pvdz.gbs 


         ---------------------------------------------------------
                                   SCF
               by Justin Turney, Rob Parrish, Andy Simmonett
                          and Daniel G. A. Smith
                              RHF Reference
                        4 Threads,  30517 MiB Core
         ---------------------------------------------------------

  ==> Geometry <==

    Molecular point group: c1
    Full point group: C1

    Geometry (in Angstrom), charge = 0, multiplicity = 1:

       Center              X                  Y                   Z               Mass       
    ------------   -----------------  -----------------  -----------------  -----------------
      Gh(C)          -2.030399260614     0.275496899830     0.000010194538    12.000000000000
      Gh(H)          -3.127913260614     0.341724899830    -0.000010805462     1.007825032230
      Gh(O)          -1.333421260614     1.285983899830    -0.000003805462    15.994914619570
      Gh(N)          -1.574445260614    -0.985651100170     0.000001194538    14.003074004430
      Gh(H)          -0.565883260614    -1.182653100170     0.000000194538     1.007825032230
      Gh(H)          -2.235029260614    -1.739584100170    -0.000009805462     1.007825032230
         C            2.079977739386    -0.262820100170     0.000001194538    12.000000000000
         H            3.169889739386    -0.289088100170    -0.000002805462     1.007825032230
         N            1.348071739386    -1.324479100170    -0.000000805462    14.003074004430
         H            1.947836739386    -2.140798100170    -0.000006805462     1.007825032230
         N            1.567802739386     0.982121899830    -0.000002805462    14.003074004430
         H            0.561162739386     1.132097899830    -0.000003805462     1.007825032230
         H            2.183689739386     1.769674899830    -0.000007805462     1.007825032230

  Running in c1 symmetry.

  Rotational constants: A =      0.18459  B =      0.06460  C =      0.04785 [cm^-1]
  Rotational constants: A =   5533.74481  B =   1936.58331  C =   1434.54982 [MHz]
  Nuclear repulsion =   72.220840074253047

  Charge       = 0
  Multiplicity = 1
  Electrons    = 24
  Nalpha       = 12
  Nbeta        = 12

  ==> Algorithm <==

  SCF Algorithm Type is DF.
  DIIS enabled.
  MOM disabled.
  Fractional occupation disabled.
  Guess Type is SAD.
  Energy threshold   = 1.00e-08
  Density threshold  = 1.00e-08
  Integral threshold = 0.00e+00

  ==> Primary Basis <==

  Basis Set: AUG-CC-PVDZ
    Blend: AUG-CC-PVDZ
    Number of shells: 89
    Number of basis function: 201
    Number of Cartesian functions: 213
    Spherical Harmonics?: true
    Max angular momentum: 2

   => Loading Basis Set <=

    Name: (AUG-CC-PVDZ AUX)
    Role: JKFIT
    Keyword: DF_BASIS_SCF
    atoms 1, 7                 entry C          line   154 file /home/xy3866/psi4conda/share/psi4/basis/aug-cc-pvdz-jkfit.gbs 
    atoms 2, 5-6, 8, 10, 12-13 entry H          line    70 file /home/xy3866/psi4conda/share/psi4/basis/aug-cc-pvdz-jkfit.gbs 
    atoms 3                    entry O          line   270 file /home/xy3866/psi4conda/share/psi4/basis/aug-cc-pvdz-jkfit.gbs 
    atoms 4, 9, 11             entry N          line   212 file /home/xy3866/psi4conda/share/psi4/basis/aug-cc-pvdz-jkfit.gbs 

  ==> Pre-Iterations <==

   -------------------------------------------------------
    Irrep   Nso     Nmo     Nalpha   Nbeta   Ndocc  Nsocc
   -------------------------------------------------------
     A        201     201       0       0       0       0
   -------------------------------------------------------
    Total     201     201      12      12      12       0
   -------------------------------------------------------

  ==> Integral Setup <==

  ==> DiskDFJK: Density-Fitted J/K Matrices <==

    J tasked:                  Yes
    K tasked:                  Yes
    wK tasked:                  No
    OpenMP threads:              4
    Integrals threads:           4
    Memory [MiB]:            22888
    Algorithm:                Core
    Integral Cache:           LOAD
    Schwarz Cutoff:          1E-12
    Fitting Condition:       1E-10

   => Auxiliary Basis Set <=

  Basis Set: (AUG-CC-PVDZ AUX)
    Blend: AUG-CC-PVDZ-JKFIT
    Number of shells: 252
    Number of basis function: 740
    Number of Cartesian functions: 851
    Spherical Harmonics?: true
    Max angular momentum: 3

  Minimum eigenvalue in the overlap matrix is 1.1909759391E-04.
  Using Symmetric Orthogonalization.

  SCF Guess: Superposition of Atomic Densities via on-the-fly atomic UHF.

  ==> Iterations <==

                           Total Energy        Delta E     RMS |[F,P]|

   @DF-RHF iter SAD:  -148.36680501111348   -1.48367e+02   0.00000e+00 
   @DF-RHF iter   1:  -148.96399457540983   -5.97190e-01   2.64938e-03 DIIS
   @DF-RHF iter   2:  -149.06659020879076   -1.02596e-01   1.52761e-03 DIIS
   @DF-RHF iter   3:  -149.10728474470960   -4.06945e-02   2.20166e-04 DIIS
   @DF-RHF iter   4:  -149.10867638552665   -1.39164e-03   1.06196e-04 DIIS
   @DF-RHF iter   5:  -149.10894158483219   -2.65199e-04   1.93370e-05 DIIS
   @DF-RHF iter   6:  -149.10896852495625   -2.69401e-05   9.21643e-06 DIIS
   @DF-RHF iter   7:  -149.10897290302685   -4.37807e-06   3.63511e-06 DIIS
   @DF-RHF iter   8:  -149.10897375438964   -8.51363e-07   1.02316e-06 DIIS
   @DF-RHF iter   9:  -149.10897382352161   -6.91320e-08   3.00255e-07 DIIS
   @DF-RHF iter  10:  -149.10897382911770   -5.59609e-09   7.05325e-08 DIIS
   @DF-RHF iter  11:  -149.10897382943659   -3.18892e-10   1.27913e-08 DIIS
   @DF-RHF iter  12:  -149.10897382944614   -9.54969e-12   2.30388e-09 DIIS
  Energy and wave function converged.


  ==> Post-Iterations <==

    Orbital Energies [Eh]
    ---------------------

    Doubly Occupied:                                                      

       1A    -15.588404     2A    -15.528866     3A    -11.323060  
       4A     -1.262342     5A     -1.139972     6A     -0.832237  
       7A     -0.747450     8A     -0.640362     9A     -0.617076  
      10A     -0.529299    11A     -0.419315    12A     -0.358412  

    Virtual:                                                              

      13A      0.027828    14A      0.036463    15A      0.045216  
      16A      0.061415    17A      0.066317    18A      0.082681  
      19A      0.090182    20A      0.102940    21A      0.103473  
      22A      0.116379    23A      0.118480    24A      0.137890  
      25A      0.158170    26A      0.161231    27A      0.165109  
      28A      0.165264    29A      0.172810    30A      0.186659  
      31A      0.191574    32A      0.210053    33A      0.210693  
      34A      0.225390    35A      0.238215    36A      0.240564  
      37A      0.255318    38A      0.278074    39A      0.281786  
      40A      0.286141    41A      0.296944    42A      0.307454  
      43A      0.340126    44A      0.345403    45A      0.352965  
      46A      0.371248    47A      0.372605    48A      0.398776  
      49A      0.417621    50A      0.419387    51A      0.435534  
      52A      0.444132    53A      0.447547    54A      0.454965  
      55A      0.460159    56A      0.482272    57A      0.490959  
      58A      0.498328    59A      0.522845    60A      0.524409  
      61A      0.531489    62A      0.536053    63A      0.544109  
      64A      0.556915    65A      0.568248    66A      0.605461  
      67A      0.614894    68A      0.617165    69A      0.625397  
      70A      0.641186    71A      0.643016    72A      0.657912  
      73A      0.659452    74A      0.681989    75A      0.689140  
      76A      0.697384    77A      0.709118    78A      0.722724  
      79A      0.763481    80A      0.770415    81A      0.774332  
      82A      0.811993    83A      0.814109    84A      0.824138  
      85A      0.834752    86A      0.843797    87A      0.879154  
      88A      0.893560    89A      0.920544    90A      0.944561  
      91A      0.951307    92A      0.982237    93A      1.002781  
      94A      1.007442    95A      1.029254    96A      1.047740  
      97A      1.048737    98A      1.054887    99A      1.099753  
     100A      1.107525   101A      1.141117   102A      1.148995  
     103A      1.154153   104A      1.168790   105A      1.211947  
     106A      1.226359   107A      1.254913   108A      1.263353  
     109A      1.288568   110A      1.324810   111A      1.378468  
     112A      1.393749   113A      1.398496   114A      1.421154  
     115A      1.455844   116A      1.475817   117A      1.500669  
     118A      1.505364   119A      1.544105   120A      1.547920  
     121A      1.583998   122A      1.585006   123A      1.637048  
     124A      1.638808   125A      1.695608   126A      1.731452  
     127A      1.783581   128A      1.814702   129A      1.897126  
     130A      1.941163   131A      1.994437   132A      2.015948  
     133A      2.040186   134A      2.096785   135A      2.123800  
     136A      2.155511   137A      2.203615   138A      2.224733  
     139A      2.251308   140A      2.279582   141A      2.293934  
     142A      2.347870   143A      2.377226   144A      2.399887  
     145A      2.404725   146A      2.410434   147A      2.456498  
     148A      2.483531   149A      2.497309   150A      2.523796  
     151A      2.546271   152A      2.591505   153A      2.593056  
     154A      2.631339   155A      2.714584   156A      2.754690  
     157A      2.758563   158A      2.777680   159A      2.835675  
     160A      2.846528   161A      2.890590   162A      2.912028  
     163A      2.933224   164A      2.955936   165A      3.009865  
     166A      3.085918   167A      3.153903   168A      3.191994  
     169A      3.232444   170A      3.251086   171A      3.267546  
     172A      3.279689   173A      3.439334   174A      3.474749  
     175A      3.520684   176A      3.561699   177A      3.654308  
     178A      3.699362   179A      3.734394   180A      3.790021  
     181A      3.852214   182A      3.905262   183A      4.328986  
     184A      4.473096   185A      4.605528   186A      4.613582  
     187A      4.703737   188A      4.963236   189A      5.025610  
     190A      5.058021   191A      5.202155   192A      5.316900  
     193A      5.854638   194A      5.943949   195A      6.096511  
     196A      6.229855   197A      6.384209   198A      7.039318  
     199A     18.620304   200A     25.501989   201A     33.522259  

    Final Occupation by Irrep:
              A 
    DOCC [    12 ]

  @DF-RHF Final Energy:  -149.10897382944614

   => Energetics <=

    Nuclear Repulsion Energy =             72.2208400742530472
    One-Electron Energy =                -344.6860330120262006
    Two-Electron Energy =                 123.3562191083270250
    Total Energy =                       -149.1089738294461426

Computation Completed


Properties will be evaluated at   0.000000,   0.000000,   0.000000 [a0]

Properties computed using the SCF density matrix

  Nuclear Dipole Moment: [e a0]
     X:    77.0131      Y:    -6.6169      Z:    -0.0001

  Electronic Dipole Moment: [e a0]
     X:   -76.1670      Y:     7.5868      Z:     0.0001

  Dipole Moment: [e a0]
     X:     0.8461      Y:     0.9699      Z:    -0.0000     Total:     1.2871

  Dipole Moment: [D]
     X:     2.1505      Y:     2.4652      Z:    -0.0000     Total:     3.2714


*** tstop() called on g2-node38.bme.utexas.edu at Mon Sep  9 14:26:08 2019
Module time:
	user time   =      12.93 seconds =       0.22 minutes
	system time =       0.29 seconds =       0.00 minutes
	total time  =          4 seconds =       0.07 minutes
Total time:
	user time   =      53.85 seconds =       0.90 minutes
	system time =       1.54 seconds =       0.03 minutes
	total time  =         17 seconds =       0.28 minutes
  Constructing Basis Sets for SAPT...

   => Loading Basis Set <=

    Name: (AUG-CC-PVDZ AUX)
    Role: RIFIT
    Keyword: DF_BASIS_SAPT
    atoms 1, 7                 entry C          line   112 file /home/xy3866/psi4conda/share/psi4/basis/aug-cc-pvdz-ri.gbs 
    atoms 2, 5-6, 8, 10, 12-13 entry H          line    30 file /home/xy3866/psi4conda/share/psi4/basis/aug-cc-pvdz-ri.gbs 
    atoms 3                    entry O          line   204 file /home/xy3866/psi4conda/share/psi4/basis/aug-cc-pvdz-ri.gbs 
    atoms 4, 9, 11             entry N          line   158 file /home/xy3866/psi4conda/share/psi4/basis/aug-cc-pvdz-ri.gbs 


  //>>>>>>>>>>>>>>>>>>>>>>>>>>>>>>>>>>>//
  //               SAPT2+              //
  //<<<<<<<<<<<<<<<<<<<<<<<<<<<<<<<<<<<//


*** tstart() called on g2-node38.bme.utexas.edu
*** at Mon Sep  9 14:26:08 2019

        SAPT2+  
    Ed Hohenstein
     6 June 2009

      Orbital Information
  --------------------------
    NSO        =       201
    NMO        =       201
    NRI        =       593
    NOCC A     =        12
    NOCC B     =        12
    FOCC A     =         3
    FOCC B     =         3
    NVIR A     =       189
    NVIR B     =       189

    Estimated memory usage: 292.9 MB

    Natural Orbital Cutoff:   1.000E-06
    Disp(T3) Truncation:            Yes
    CCD (vv|vv) Truncation:         Yes
    MBPT T2 Truncation:             Yes

    Monomer A: 100 virtual orbitals dropped
    Monomer B: 93 virtual orbitals dropped

    Elst10,r            =    -0.041048188182 [Eh]
    Exch10 (S^2)        =     0.038329000297 [Eh]
    Exch10              =     0.038885107663 [Eh]
    Ind20,r (A<-B)      =    -0.007753387709 [Eh]
    Ind20,r (B<-A)      =    -0.011463093919 [Eh]
    Ind20,r             =    -0.019216481627 [Eh]
    Exch-Ind20,r (A<-B) =     0.003530540943 [Eh]
    Exch-Ind20,r (B<-A) =     0.006381678617 [Eh]
    Exch-Ind20,r        =     0.009912219560 [Eh]
    Disp20              =    -0.012928044079 [Eh]
    Disp20 (NO)         =    -0.011615889138 [Eh]
    Exch-Disp20         =     0.002498267836 [Eh]
    Elst12,r            =     0.000324931714 [Eh]
    Exch11              =    -0.000021960384 [Eh]
    Exch12              =     0.006039361647 [Eh]
    Ind22               =    -0.002701770513 [Eh]
    Disp21              =     0.001068132628 [Eh]
    Disp22 (SDQ)        =    -0.000417464645 [Eh]

    (i =   1 of   9)          2 seconds
    (i =   2 of   9)          5 seconds
    (i =   3 of   9)          8 seconds
    (i =   4 of   9)         10 seconds
    (i =   5 of   9)         13 seconds
    (i =   6 of   9)         15 seconds
    (i =   7 of   9)         18 seconds
    (i =   8 of   9)         20 seconds
    (i =   9 of   9)         23 seconds

    Disp220 (T)         =    -0.001020484589 [Eh]

    (i =   1 of   9)          3 seconds
    (i =   2 of   9)          6 seconds
    (i =   3 of   9)          9 seconds
    (i =   4 of   9)         12 seconds
    (i =   5 of   9)         15 seconds
    (i =   6 of   9)         18 seconds
    (i =   7 of   9)         20 seconds
    (i =   8 of   9)         23 seconds
    (i =   9 of   9)         25 seconds

    Disp202 (T)         =    -0.000936689635 [Eh]

    Disp22 (T)          =    -0.001957174224 [Eh]

    Est. Disp220 (T)    =    -0.001135760646 [Eh]
    Est. Disp202 (T)    =    -0.001042500040 [Eh]

    Est. Disp22 (T)     =    -0.002178260686 [Eh]

    SAPT Results 
  --------------------------------------------------------------------------------------------------------
    Electrostatics                -40.72325647 [mEh]     -25.55422924 [kcal/mol]    -106.91889513 [kJ/mol]
      Elst10,r                    -41.04818818 [mEh]     -25.75812697 [kcal/mol]    -107.77200322 [kJ/mol]
      Elst12,r                      0.32493171 [mEh]       0.20389773 [kcal/mol]       0.85310810 [kJ/mol]

    Exchange                       44.90250893 [mEh]      28.17674975 [kcal/mol]     117.89152094 [kJ/mol]
      Exch10                       38.88510766 [mEh]      24.40077345 [kcal/mol]     102.09283610 [kJ/mol]
      Exch10(S^2)                  38.32900030 [mEh]      24.05181081 [kcal/mol]     100.63277642 [kJ/mol]
      Exch11(S^2)                  -0.02196038 [mEh]      -0.01378035 [kcal/mol]      -0.05765698 [kJ/mol]
      Exch12(S^2)                   6.03936165 [mEh]       3.78975665 [kcal/mol]      15.85634182 [kJ/mol]

    Induction                     -17.48747405 [mEh]     -10.97355564 [kcal/mol]     -45.91335679 [kJ/mol]
      Ind20,r                     -19.21648163 [mEh]     -12.05852427 [kcal/mol]     -50.45286556 [kJ/mol]
      Ind22                        -2.70177051 [mEh]      -1.69538659 [kcal/mol]      -7.09349750 [kJ/mol]
      Exch-Ind20,r                  9.91221956 [mEh]       6.22001168 [kcal/mol]      26.02452887 [kJ/mol]
      Exch-Ind22                    1.39362361 [mEh]       0.87451202 [kcal/mol]       3.65895829 [kJ/mol]
      delta HF,r (2)               -6.87506508 [mEh]      -4.31416847 [kcal/mol]     -18.05048088 [kJ/mol]

    Dispersion                    -11.95736895 [mEh]      -7.50336229 [kcal/mol]     -31.39406784 [kJ/mol]
      Disp20                      -12.92804408 [mEh]      -8.11247014 [kcal/mol]     -33.94257505 [kJ/mol]
      Disp21                        1.06813263 [mEh]       0.67026334 [kcal/mol]       2.80438183 [kJ/mol]
      Disp22 (SDQ)                 -0.41746465 [mEh]      -0.26196302 [kcal/mol]      -1.09605327 [kJ/mol]
      Disp22 (T)                   -1.95717422 [mEh]      -1.22814537 [kcal/mol]      -5.13856022 [kJ/mol]
      Est. Disp22 (T)              -2.17826069 [mEh]      -1.36687922 [kcal/mol]      -5.71902264 [kJ/mol]
      Exch-Disp20                   2.49826784 [mEh]       1.56768674 [kcal/mol]       6.55920130 [kJ/mol]

  Total HF                        -18.34240766 [mEh]     -11.51003458 [kcal/mol]     -48.15798469 [kJ/mol]
  Total SAPT0                     -28.77218391 [mEh]     -18.05481798 [kcal/mol]     -75.54135844 [kJ/mol]
  Total SAPT2                     -23.73799783 [mEh]     -14.89581853 [kcal/mol]     -62.32410472 [kJ/mol]
  Total SAPT2+                    -25.26559054 [mEh]     -15.85439742 [kcal/mol]     -66.33479881 [kJ/mol]

  Special recipe for scaled SAPT0 (see Manual):
    Electrostatics sSAPT0         -41.04818818 [mEh]     -25.75812697 [kcal/mol]    -107.77200322 [kJ/mol]
    Exchange sSAPT0                38.88510766 [mEh]      24.40077345 [kcal/mol]     102.09283610 [kJ/mol]
    Induction sSAPT0              -15.74159426 [mEh]      -9.87799953 [kcal/mol]     -41.32955004 [kJ/mol]
    Dispersion sSAPT0             -10.31945040 [mEh]      -6.47555289 [kcal/mol]     -27.09371329 [kJ/mol]
  Total sSAPT0                    -28.22412518 [mEh]     -17.71090594 [kcal/mol]     -74.10243045 [kJ/mol]
  --------------------------------------------------------------------------------------------------------

*** tstop() called on g2-node38.bme.utexas.edu at Mon Sep  9 14:27:34 2019
Module time:
	user time   =     312.72 seconds =       5.21 minutes
	system time =      11.35 seconds =       0.19 minutes
	total time  =         86 seconds =       1.43 minutes
Total time:
	user time   =     367.03 seconds =       6.12 minutes
	system time =      12.91 seconds =       0.22 minutes
	total time  =        103 seconds =       1.72 minutes

    Psi4 stopped on: Monday, 09 September 2019 02:27PM
    Psi4 wall time for execution: 0:01:43.48

*** Psi4 exiting successfully. Buy a developer a beer!
