
    -----------------------------------------------------------------------
          Psi4: An Open-Source Ab Initio Electronic Structure Package
                               Psi4 1.3.2 release

                         Git: Rev {HEAD} ecbda83 


    R. M. Parrish, L. A. Burns, D. G. A. Smith, A. C. Simmonett,
    A. E. DePrince III, E. G. Hohenstein, U. Bozkaya, A. Yu. Sokolov,
    R. Di Remigio, R. M. Richard, J. F. Gonthier, A. M. James,
    H. R. McAlexander, A. Kumar, M. Saitow, X. Wang, B. P. Pritchard,
    P. Verma, H. F. Schaefer III, K. Patkowski, R. A. King, E. F. Valeev,
    F. A. Evangelista, J. M. Turney, T. D. Crawford, and C. D. Sherrill,
    J. Chem. Theory Comput. 13(7) pp 3185--3197 (2017).
    (doi: 10.1021/acs.jctc.7b00174)


                         Additional Contributions by
    P. Kraus, H. Kruse, M. H. Lechner, M. C. Schieber, R. A. Shaw,
    A. Alenaizan, R. Galvelis, Z. L. Glick, S. Lehtola, and J. P. Misiewicz

    -----------------------------------------------------------------------


    Psi4 started on: Tuesday, 10 September 2019 01:28PM

    Process ID: 57400
    Host:       node51.bme.utexas.edu
    PSIDATADIR: /home/xy3866/psi4conda/share/psi4
    Memory:     500.0 MiB
    Threads:    4
    
  ==> Input File <==

--------------------------------------------------------------------------
#psi4
#
memory 32 gb

molecule  {
0 1
  O        3.6417540     0.2907420     0.0000970
  C        3.1452410    -0.8178420    -0.0000810
  N        3.9152070    -1.9745340     0.0001010
  C        3.3889340    -3.2359820     0.0000920
  C        2.0569540    -3.4445590    -0.0000320
  C        1.1525990    -2.3081400    -0.0002060
  N        1.7888040    -1.0675620    -0.0001450
  O       -0.0695520    -2.3892320    -0.0001960
  H        1.6409750    -4.4370170     0.0000140
  H        4.9097050    -1.8221610     0.0002390
  H        1.1852000    -0.2384930    -0.0001480
  H        4.1059790    -4.0435990     0.0002290
--
0 1
  O        0.9944449     0.5466180    -0.0002211
  C       -0.2309461     0.5944930    -0.0002031
  N       -0.8720961     1.8334440    -0.0000371
  C       -2.2289041     2.0958230     0.0001709
  N       -2.9926671     0.9429990     0.0001209
  C       -2.4612231    -0.3205800     0.0000049
  C       -1.1301771    -0.5399570    -0.0000961
  O       -2.7045811     3.2134950     0.0001339
  H       -0.7093081    -1.5333280    -0.0001401
  H       -3.9882901     1.0899020     0.0001729
  H       -0.2723451     2.6474530    -0.0000871
  H       -3.1796351    -1.1267070     0.0000229
units angstrom
no_reorient  #important for SAPT in psi4, default
symmetry c1  #important for SAPT in psi4, default
}

set {
basis aug-cc-pVDZ
scf_type DF
freeze_core True
}
energy('sapt2+')
--------------------------------------------------------------------------

  Memory set to  29.802 GiB by Python driver.

  //>>>>>>>>>>>>>>>>>>>>>>>>>>>>>>>>>>>//
  //              Dimer HF             //
  //<<<<<<<<<<<<<<<<<<<<<<<<<<<<<<<<<<<//


*** tstart() called on node51.bme.utexas.edu
*** at Tue Sep 10 13:28:52 2019

   => Loading Basis Set <=

    Name: AUG-CC-PVDZ
    Role: ORBITAL
    Keyword: BASIS
    atoms 1, 8, 13, 20          entry O          line   250 file /home/xy3866/psi4conda/share/psi4/basis/aug-cc-pvdz.gbs 
    atoms 2, 4-6, 14, 16, 18-19 entry C          line   178 file /home/xy3866/psi4conda/share/psi4/basis/aug-cc-pvdz.gbs 
    atoms 3, 7, 15, 17          entry N          line   214 file /home/xy3866/psi4conda/share/psi4/basis/aug-cc-pvdz.gbs 
    atoms 9-12, 21-24           entry H          line    36 file /home/xy3866/psi4conda/share/psi4/basis/aug-cc-pvdz.gbs 


         ---------------------------------------------------------
                                   SCF
               by Justin Turney, Rob Parrish, Andy Simmonett
                          and Daniel G. A. Smith
                              RHF Reference
                        4 Threads,  30517 MiB Core
         ---------------------------------------------------------

  ==> Geometry <==

    Molecular point group: c1
    Full point group: C1

    Geometry (in Angstrom), charge = 0, multiplicity = 1:

       Center              X                  Y                   Z               Mass       
    ------------   -----------------  -----------------  -----------------  -----------------
         O            3.179502247647     0.658515707649     0.000125210821    15.994914619570
         C            2.682989247647    -0.450068292351    -0.000052789179    12.000000000000
         N            3.452955247647    -1.606760292351     0.000129210821    14.003074004430
         C            2.926682247647    -2.868208292351     0.000120210821    12.000000000000
         C            1.594702247647    -3.076785292351    -0.000003789179    12.000000000000
         C            0.690347247647    -1.940366292351    -0.000177789179    12.000000000000
         N            1.326552247647    -0.699788292351    -0.000116789179    14.003074004430
         O           -0.531803752353    -2.021458292351    -0.000167789179    15.994914619570
         H            1.178723247647    -4.069243292351     0.000042210821     1.007825032230
         H            4.447453247647    -1.454387292351     0.000267210821     1.007825032230
         H            0.722948247647     0.129280707649    -0.000119789179     1.007825032230
         H            3.643727247647    -3.675825292351     0.000257210821     1.007825032230
         O            0.532193147647     0.914391707649    -0.000192889179    15.994914619570
         C           -0.693197852353     0.962266707649    -0.000174889179    12.000000000000
         N           -1.334347852353     2.201217707649    -0.000008889179    14.003074004430
         C           -2.691155852353     2.463596707649     0.000199110821    12.000000000000
         N           -3.454918852353     1.310772707649     0.000149110821    14.003074004430
         C           -2.923474852353     0.047193707649     0.000033110821    12.000000000000
         C           -1.592428852353    -0.172183292351    -0.000067889179    12.000000000000
         O           -3.166832852353     3.581268707649     0.000162110821    15.994914619570
         H           -1.171559852353    -1.165554292351    -0.000111889179     1.007825032230
         H           -4.450541852353     1.457675707649     0.000201110821     1.007825032230
         H           -0.734596852353     3.015226707649    -0.000058889179     1.007825032230
         H           -3.641886852353    -0.758933292351     0.000051110821     1.007825032230

  Running in c1 symmetry.

  Rotational constants: A =      0.04582  B =      0.01001  C =      0.00821 [cm^-1]
  Rotational constants: A =   1373.72635  B =    300.06901  C =    246.27426 [MHz]
  Nuclear repulsion = 1110.392493873875082

  Charge       = 0
  Multiplicity = 1
  Electrons    = 116
  Nalpha       = 58
  Nbeta        = 58

  ==> Algorithm <==

  SCF Algorithm Type is DF.
  DIIS enabled.
  MOM disabled.
  Fractional occupation disabled.
  Guess Type is SAD.
  Energy threshold   = 1.00e-08
  Density threshold  = 1.00e-08
  Integral threshold = 0.00e+00

  ==> Primary Basis <==

  Basis Set: AUG-CC-PVDZ
    Blend: AUG-CC-PVDZ
    Number of shells: 184
    Number of basis function: 440
    Number of Cartesian functions: 472
    Spherical Harmonics?: true
    Max angular momentum: 2

   => Loading Basis Set <=

    Name: (AUG-CC-PVDZ AUX)
    Role: JKFIT
    Keyword: DF_BASIS_SCF
    atoms 1, 8, 13, 20          entry O          line   270 file /home/xy3866/psi4conda/share/psi4/basis/aug-cc-pvdz-jkfit.gbs 
    atoms 2, 4-6, 14, 16, 18-19 entry C          line   154 file /home/xy3866/psi4conda/share/psi4/basis/aug-cc-pvdz-jkfit.gbs 
    atoms 3, 7, 15, 17          entry N          line   212 file /home/xy3866/psi4conda/share/psi4/basis/aug-cc-pvdz-jkfit.gbs 
    atoms 9-12, 21-24           entry H          line    70 file /home/xy3866/psi4conda/share/psi4/basis/aug-cc-pvdz-jkfit.gbs 

  ==> Pre-Iterations <==

   -------------------------------------------------------
    Irrep   Nso     Nmo     Nalpha   Nbeta   Ndocc  Nsocc
   -------------------------------------------------------
     A        440     440       0       0       0       0
   -------------------------------------------------------
    Total     440     440      58      58      58       0
   -------------------------------------------------------

  ==> Integral Setup <==

  ==> DiskDFJK: Density-Fitted J/K Matrices <==

    J tasked:                  Yes
    K tasked:                  Yes
    wK tasked:                  No
    OpenMP threads:              4
    Integrals threads:           4
    Memory [MiB]:            22888
    Algorithm:                Core
    Integral Cache:           SAVE
    Schwarz Cutoff:          1E-12
    Fitting Condition:       1E-10

   => Auxiliary Basis Set <=

  Basis Set: (AUG-CC-PVDZ AUX)
    Blend: AUG-CC-PVDZ-JKFIT
    Number of shells: 544
    Number of basis function: 1632
    Number of Cartesian functions: 1896
    Spherical Harmonics?: true
    Max angular momentum: 3

  Minimum eigenvalue in the overlap matrix is 3.0526094655E-06.
  Using Symmetric Orthogonalization.

  SCF Guess: Superposition of Atomic Densities via on-the-fly atomic UHF.

  ==> Iterations <==

                           Total Energy        Delta E     RMS |[F,P]|

   @DF-RHF iter SAD:  -825.43679553382231   -8.25437e+02   0.00000e+00 
   @DF-RHF iter   1:  -824.17098036364177    1.26582e+00   2.39162e-03 DIIS
   @DF-RHF iter   2:  -824.53117409344100   -3.60194e-01   1.41210e-03 DIIS
   @DF-RHF iter   3:  -824.67277045851881   -1.41596e-01   2.72113e-04 DIIS
   @DF-RHF iter   4:  -824.68046162840415   -7.69117e-03   1.08501e-04 DIIS
   @DF-RHF iter   5:  -824.68193807370812   -1.47645e-03   2.18191e-05 DIIS
   @DF-RHF iter   6:  -824.68210642055692   -1.68347e-04   1.30681e-05 DIIS
   @DF-RHF iter   7:  -824.68214845479804   -4.20342e-05   4.63798e-06 DIIS
   @DF-RHF iter   8:  -824.68215631499970   -7.86020e-06   1.73650e-06 DIIS
   @DF-RHF iter   9:  -824.68215707617298   -7.61173e-07   6.43712e-07 DIIS
   @DF-RHF iter  10:  -824.68215718953934   -1.13366e-07   2.21161e-07 DIIS
   @DF-RHF iter  11:  -824.68215720355374   -1.40144e-08   1.03178e-07 DIIS
   @DF-RHF iter  12:  -824.68215720617695   -2.62321e-09   3.64371e-08 DIIS
   @DF-RHF iter  13:  -824.68215720650392   -3.26963e-10   1.29896e-08 DIIS
   @DF-RHF iter  14:  -824.68215720657577   -7.18501e-11   5.75673e-09 DIIS
  Energy and wave function converged.


  ==> Post-Iterations <==

    Orbital Energies [Eh]
    ---------------------

    Doubly Occupied:                                                      

       1A    -20.576473     2A    -20.558804     3A    -20.539023  
       4A    -20.521501     5A    -15.651233     6A    -15.645407  
       7A    -15.625221     8A    -15.514712     9A    -11.429708  
      10A    -11.417160    11A    -11.386489    12A    -11.374882  
      13A    -11.328856    14A    -11.328361    15A    -11.239148  
      16A    -11.184316    17A     -1.566948    18A     -1.440813  
      19A     -1.438629    20A     -1.398335    21A     -1.322231  
      22A     -1.287600    23A     -1.270491    24A     -1.203250  
      25A     -1.079533    26A     -1.071371    27A     -0.996298  
      28A     -0.937593    29A     -0.905552    30A     -0.884599  
      31A     -0.844377    32A     -0.831809    33A     -0.773302  
      34A     -0.756587    35A     -0.744582    36A     -0.727767  
      37A     -0.710528    38A     -0.683646    39A     -0.678640  
      40A     -0.652095    41A     -0.642202    42A     -0.629847  
      43A     -0.620238    44A     -0.614274    45A     -0.611299  
      46A     -0.589175    47A     -0.574033    48A     -0.536868  
      49A     -0.515243    50A     -0.495140    51A     -0.481512  
      52A     -0.471442    53A     -0.445960    54A     -0.410496  
      55A     -0.397744    56A     -0.353298    57A     -0.348618  
      58A     -0.344707  

    Virtual:                                                              

      59A      0.024578    60A      0.026152    61A      0.042922  
      62A      0.048590    63A      0.053584    64A      0.065290  
      65A      0.067180    66A      0.070670    67A      0.076122  
      68A      0.083850    69A      0.084563    70A      0.097654  
      71A      0.103832    72A      0.114212    73A      0.118389  
      74A      0.120017    75A      0.121057    76A      0.127548  
      77A      0.130229    78A      0.132662    79A      0.133199  
      80A      0.144157    81A      0.148626    82A      0.153247  
      83A      0.154843    84A      0.156492    85A      0.161285  
      86A      0.167966    87A      0.167980    88A      0.172116  
      89A      0.177150    90A      0.181992    91A      0.189055  
      92A      0.196612    93A      0.198291    94A      0.209112  
      95A      0.212925    96A      0.214005    97A      0.220974  
      98A      0.229897    99A      0.234736   100A      0.247108  
     101A      0.251673   102A      0.257271   103A      0.267563  
     104A      0.269662   105A      0.273901   106A      0.275292  
     107A      0.281750   108A      0.284092   109A      0.287370  
     110A      0.292994   111A      0.304045   112A      0.310206  
     113A      0.313837   114A      0.316098   115A      0.321562  
     116A      0.330563   117A      0.334541   118A      0.337932  
     119A      0.339681   120A      0.340612   121A      0.345989  
     122A      0.352283   123A      0.358428   124A      0.361939  
     125A      0.363853   126A      0.365609   127A      0.374089  
     128A      0.379583   129A      0.383087   130A      0.389083  
     131A      0.393482   132A      0.395710   133A      0.402752  
     134A      0.408382   135A      0.410682   136A      0.414806  
     137A      0.419915   138A      0.428965   139A      0.437582  
     140A      0.439618   141A      0.447928   142A      0.450187  
     143A      0.458699   144A      0.461634   145A      0.466842  
     146A      0.471978   147A      0.475561   148A      0.481663  
     149A      0.487625   150A      0.495083   151A      0.498798  
     152A      0.513204   153A      0.520475   154A      0.524059  
     155A      0.530054   156A      0.540330   157A      0.541062  
     158A      0.553463   159A      0.562522   160A      0.564366  
     161A      0.581592   162A      0.582484   163A      0.588061  
     164A      0.596608   165A      0.601238   166A      0.618442  
     167A      0.621097   168A      0.625262   169A      0.638577  
     170A      0.640446   171A      0.643565   172A      0.644335  
     173A      0.650086   174A      0.651616   175A      0.660565  
     176A      0.667050   177A      0.672100   178A      0.677745  
     179A      0.684636   180A      0.700318   181A      0.704611  
     182A      0.712550   183A      0.720159   184A      0.720251  
     185A      0.722752   186A      0.739113   187A      0.744634  
     188A      0.747616   189A      0.759091   190A      0.762107  
     191A      0.766927   192A      0.768937   193A      0.782858  
     194A      0.795895   195A      0.797467   196A      0.802420  
     197A      0.813998   198A      0.818894   199A      0.824850  
     200A      0.824866   201A      0.828815   202A      0.845260  
     203A      0.851241   204A      0.855470   205A      0.861488  
     206A      0.861931   207A      0.871040   208A      0.881204  
     209A      0.882821   210A      0.887232   211A      0.890969  
     212A      0.901491   213A      0.903928   214A      0.904320  
     215A      0.928888   216A      0.933092   217A      0.945977  
     218A      0.953341   219A      0.960353   220A      0.964681  
     221A      0.980313   222A      0.982207   223A      0.988980  
     224A      0.989421   225A      1.000899   226A      1.013963  
     227A      1.014256   228A      1.021254   229A      1.027713  
     230A      1.040994   231A      1.052701   232A      1.053812  
     233A      1.060405   234A      1.067075   235A      1.077836  
     236A      1.086075   237A      1.092125   238A      1.094037  
     239A      1.106408   240A      1.113017   241A      1.123971  
     242A      1.136801   243A      1.146895   244A      1.153746  
     245A      1.157505   246A      1.170298   247A      1.180834  
     248A      1.204821   249A      1.219609   250A      1.226380  
     251A      1.226726   252A      1.242789   253A      1.245683  
     254A      1.255332   255A      1.258566   256A      1.272207  
     257A      1.272306   258A      1.294605   259A      1.301119  
     260A      1.308550   261A      1.339573   262A      1.344306  
     263A      1.359658   264A      1.361598   265A      1.378128  
     266A      1.380790   267A      1.399212   268A      1.405567  
     269A      1.430419   270A      1.446660   271A      1.453238  
     272A      1.470973   273A      1.476240   274A      1.485835  
     275A      1.507473   276A      1.530408   277A      1.543001  
     278A      1.558928   279A      1.568384   280A      1.584697  
     281A      1.585816   282A      1.591866   283A      1.601258  
     284A      1.618874   285A      1.629631   286A      1.635946  
     287A      1.636523   288A      1.664165   289A      1.675203  
     290A      1.684018   291A      1.688163   292A      1.704031  
     293A      1.712755   294A      1.726580   295A      1.736543  
     296A      1.743101   297A      1.753568   298A      1.763327  
     299A      1.783246   300A      1.787671   301A      1.814279  
     302A      1.824150   303A      1.825698   304A      1.842925  
     305A      1.847053   306A      1.858223   307A      1.861140  
     308A      1.889609   309A      1.890459   310A      1.907306  
     311A      1.936151   312A      1.938101   313A      1.941313  
     314A      1.964648   315A      1.972690   316A      1.978778  
     317A      1.980721   318A      1.993066   319A      2.005491  
     320A      2.012926   321A      2.018192   322A      2.034045  
     323A      2.048250   324A      2.053708   325A      2.065123  
     326A      2.094548   327A      2.100672   328A      2.112282  
     329A      2.123244   330A      2.129015   331A      2.149329  
     332A      2.158048   333A      2.175134   334A      2.193865  
     335A      2.211814   336A      2.224846   337A      2.238986  
     338A      2.243441   339A      2.248424   340A      2.269593  
     341A      2.272671   342A      2.290015   343A      2.303924  
     344A      2.310043   345A      2.322381   346A      2.341542  
     347A      2.350818   348A      2.353989   349A      2.375391  
     350A      2.380003   351A      2.388955   352A      2.417348  
     353A      2.431926   354A      2.456939   355A      2.470976  
     356A      2.473629   357A      2.491774   358A      2.498847  
     359A      2.512608   360A      2.514673   361A      2.539323  
     362A      2.557003   363A      2.558344   364A      2.590035  
     365A      2.607030   366A      2.612783   367A      2.650567  
     368A      2.662084   369A      2.696344   370A      2.698943  
     371A      2.720976   372A      2.725176   373A      2.740348  
     374A      2.763262   375A      2.794113   376A      2.805505  
     377A      2.820921   378A      2.821376   379A      2.839552  
     380A      2.843087   381A      2.865612   382A      2.884594  
     383A      2.893253   384A      2.901499   385A      2.909208  
     386A      2.918903   387A      2.930065   388A      2.949597  
     389A      2.965211   390A      2.980408   391A      3.040221  
     392A      3.041567   393A      3.086634   394A      3.115711  
     395A      3.129192   396A      3.161353   397A      3.206710  
     398A      3.232726   399A      3.259275   400A      3.266062  
     401A      3.321238   402A      3.351515   403A      3.364520  
     404A      3.373756   405A      3.412724   406A      3.460151  
     407A      3.498688   408A      3.519621   409A      3.539185  
     410A      3.550978   411A      3.592614   412A      3.656633  
     413A      3.690768   414A      3.725945   415A      3.739513  
     416A      3.784112   417A      3.804476   418A      3.807218  
     419A      3.811068   420A      3.835521   421A      3.839940  
     422A      3.851882   423A      3.874051   424A      3.902503  
     425A      3.939215   426A      3.967846   427A      3.992267  
     428A      4.033784   429A      4.071679   430A      4.096651  
     431A      4.118949   432A      4.182564   433A      4.208724  
     434A      4.264720   435A      4.319306   436A      4.442189  
     437A      4.526977   438A      4.721317   439A      4.766191  
     440A      5.172276  

    Final Occupation by Irrep:
              A 
    DOCC [    58 ]

  @DF-RHF Final Energy:  -824.68215720657577

   => Energetics <=

    Nuclear Repulsion Energy =           1110.3924938738750825
    One-Electron Energy =               -3332.9293786228995486
    Two-Electron Energy =                1397.8547275424486998
    Total Energy =                       -824.6821572065757664

Computation Completed


Properties will be evaluated at   0.000000,   0.000000,   0.000000 [a0]

Properties computed using the SCF density matrix

  Nuclear Dipole Moment: [e a0]
     X:    -0.0053      Y:    -6.1024      Z:     0.0005

  Electronic Dipole Moment: [e a0]
     X:    -0.3730      Y:     4.1892      Z:    -0.0005

  Dipole Moment: [e a0]
     X:    -0.3783      Y:    -1.9132      Z:     0.0000     Total:     1.9502

  Dipole Moment: [D]
     X:    -0.9615      Y:    -4.8628      Z:     0.0001     Total:     4.9570


*** tstop() called on node51.bme.utexas.edu at Tue Sep 10 13:29:46 2019
Module time:
	user time   =     199.13 seconds =       3.32 minutes
	system time =       3.56 seconds =       0.06 minutes
	total time  =         54 seconds =       0.90 minutes
Total time:
	user time   =     199.13 seconds =       3.32 minutes
	system time =       3.56 seconds =       0.06 minutes
	total time  =         54 seconds =       0.90 minutes

  //>>>>>>>>>>>>>>>>>>>>>>>>>>>>>>>>>>>//
  //            Monomer A HF           //
  //<<<<<<<<<<<<<<<<<<<<<<<<<<<<<<<<<<<//


*** tstart() called on node51.bme.utexas.edu
*** at Tue Sep 10 13:29:46 2019

   => Loading Basis Set <=

    Name: AUG-CC-PVDZ
    Role: ORBITAL
    Keyword: BASIS
    atoms 1, 8, 13, 20          entry O          line   250 file /home/xy3866/psi4conda/share/psi4/basis/aug-cc-pvdz.gbs 
    atoms 2, 4-6, 14, 16, 18-19 entry C          line   178 file /home/xy3866/psi4conda/share/psi4/basis/aug-cc-pvdz.gbs 
    atoms 3, 7, 15, 17          entry N          line   214 file /home/xy3866/psi4conda/share/psi4/basis/aug-cc-pvdz.gbs 
    atoms 9-12, 21-24           entry H          line    36 file /home/xy3866/psi4conda/share/psi4/basis/aug-cc-pvdz.gbs 


         ---------------------------------------------------------
                                   SCF
               by Justin Turney, Rob Parrish, Andy Simmonett
                          and Daniel G. A. Smith
                              RHF Reference
                        4 Threads,  30517 MiB Core
         ---------------------------------------------------------

  ==> Geometry <==

    Molecular point group: c1
    Full point group: C1

    Geometry (in Angstrom), charge = 0, multiplicity = 1:

       Center              X                  Y                   Z               Mass       
    ------------   -----------------  -----------------  -----------------  -----------------
         O            3.179502247647     0.658515707649     0.000125210821    15.994914619570
         C            2.682989247647    -0.450068292351    -0.000052789179    12.000000000000
         N            3.452955247647    -1.606760292351     0.000129210821    14.003074004430
         C            2.926682247647    -2.868208292351     0.000120210821    12.000000000000
         C            1.594702247647    -3.076785292351    -0.000003789179    12.000000000000
         C            0.690347247647    -1.940366292351    -0.000177789179    12.000000000000
         N            1.326552247647    -0.699788292351    -0.000116789179    14.003074004430
         O           -0.531803752353    -2.021458292351    -0.000167789179    15.994914619570
         H            1.178723247647    -4.069243292351     0.000042210821     1.007825032230
         H            4.447453247647    -1.454387292351     0.000267210821     1.007825032230
         H            0.722948247647     0.129280707649    -0.000119789179     1.007825032230
         H            3.643727247647    -3.675825292351     0.000257210821     1.007825032230
      Gh(O)           0.532193147647     0.914391707649    -0.000192889179    15.994914619570
      Gh(C)          -0.693197852353     0.962266707649    -0.000174889179    12.000000000000
      Gh(N)          -1.334347852353     2.201217707649    -0.000008889179    14.003074004430
      Gh(C)          -2.691155852353     2.463596707649     0.000199110821    12.000000000000
      Gh(N)          -3.454918852353     1.310772707649     0.000149110821    14.003074004430
      Gh(C)          -2.923474852353     0.047193707649     0.000033110821    12.000000000000
      Gh(C)          -1.592428852353    -0.172183292351    -0.000067889179    12.000000000000
      Gh(O)          -3.166832852353     3.581268707649     0.000162110821    15.994914619570
      Gh(H)          -1.171559852353    -1.165554292351    -0.000111889179     1.007825032230
      Gh(H)          -4.450541852353     1.457675707649     0.000201110821     1.007825032230
      Gh(H)          -0.734596852353     3.015226707649    -0.000058889179     1.007825032230
      Gh(H)          -3.641886852353    -0.758933292351     0.000051110821     1.007825032230

  Running in c1 symmetry.

  Rotational constants: A =      0.04582  B =      0.01001  C =      0.00821 [cm^-1]
  Rotational constants: A =   1373.72635  B =    300.06901  C =    246.27426 [MHz]
  Nuclear repulsion =  357.068192462523655

  Charge       = 0
  Multiplicity = 1
  Electrons    = 58
  Nalpha       = 29
  Nbeta        = 29

  ==> Algorithm <==

  SCF Algorithm Type is DF.
  DIIS enabled.
  MOM disabled.
  Fractional occupation disabled.
  Guess Type is SAD.
  Energy threshold   = 1.00e-08
  Density threshold  = 1.00e-08
  Integral threshold = 0.00e+00

  ==> Primary Basis <==

  Basis Set: AUG-CC-PVDZ
    Blend: AUG-CC-PVDZ
    Number of shells: 184
    Number of basis function: 440
    Number of Cartesian functions: 472
    Spherical Harmonics?: true
    Max angular momentum: 2

   => Loading Basis Set <=

    Name: (AUG-CC-PVDZ AUX)
    Role: JKFIT
    Keyword: DF_BASIS_SCF
    atoms 1, 8, 13, 20          entry O          line   270 file /home/xy3866/psi4conda/share/psi4/basis/aug-cc-pvdz-jkfit.gbs 
    atoms 2, 4-6, 14, 16, 18-19 entry C          line   154 file /home/xy3866/psi4conda/share/psi4/basis/aug-cc-pvdz-jkfit.gbs 
    atoms 3, 7, 15, 17          entry N          line   212 file /home/xy3866/psi4conda/share/psi4/basis/aug-cc-pvdz-jkfit.gbs 
    atoms 9-12, 21-24           entry H          line    70 file /home/xy3866/psi4conda/share/psi4/basis/aug-cc-pvdz-jkfit.gbs 

  ==> Pre-Iterations <==

   -------------------------------------------------------
    Irrep   Nso     Nmo     Nalpha   Nbeta   Ndocc  Nsocc
   -------------------------------------------------------
     A        440     440       0       0       0       0
   -------------------------------------------------------
    Total     440     440      29      29      29       0
   -------------------------------------------------------

  ==> Integral Setup <==

  ==> DiskDFJK: Density-Fitted J/K Matrices <==

    J tasked:                  Yes
    K tasked:                  Yes
    wK tasked:                  No
    OpenMP threads:              4
    Integrals threads:           4
    Memory [MiB]:            22888
    Algorithm:                Core
    Integral Cache:           LOAD
    Schwarz Cutoff:          1E-12
    Fitting Condition:       1E-10

   => Auxiliary Basis Set <=

  Basis Set: (AUG-CC-PVDZ AUX)
    Blend: AUG-CC-PVDZ-JKFIT
    Number of shells: 544
    Number of basis function: 1632
    Number of Cartesian functions: 1896
    Spherical Harmonics?: true
    Max angular momentum: 3

  Minimum eigenvalue in the overlap matrix is 3.0526094655E-06.
  Using Symmetric Orthogonalization.

  SCF Guess: Superposition of Atomic Densities via on-the-fly atomic UHF.

  ==> Iterations <==

                           Total Energy        Delta E     RMS |[F,P]|

   @DF-RHF iter SAD:  -411.88329220114770   -4.11883e+02   0.00000e+00 
   @DF-RHF iter   1:  -412.28509471121180   -4.01803e-01   1.63954e-03 DIIS
   @DF-RHF iter   2:  -412.44830026796552   -1.63206e-01   1.06434e-03 DIIS
   @DF-RHF iter   3:  -412.52548984494018   -7.71896e-02   1.99438e-04 DIIS
   @DF-RHF iter   4:  -412.52975208309925   -4.26224e-03   7.91546e-05 DIIS
   @DF-RHF iter   5:  -412.53059701130201   -8.44928e-04   1.61866e-05 DIIS
   @DF-RHF iter   6:  -412.53069517198287   -9.81607e-05   8.21774e-06 DIIS
   @DF-RHF iter   7:  -412.53071270292901   -1.75309e-05   3.18592e-06 DIIS
   @DF-RHF iter   8:  -412.53071557119671   -2.86827e-06   1.10802e-06 DIIS
   @DF-RHF iter   9:  -412.53071578578914   -2.14592e-07   4.43996e-07 DIIS
   @DF-RHF iter  10:  -412.53071583985934   -5.40702e-08   1.42163e-07 DIIS
   @DF-RHF iter  11:  -412.53071584576912   -5.90978e-09   4.71124e-08 DIIS
   @DF-RHF iter  12:  -412.53071584623819   -4.69072e-10   1.48838e-08 DIIS
   @DF-RHF iter  13:  -412.53071584629748   -5.92877e-11   5.31119e-09 DIIS
  Energy and wave function converged.


  ==> Post-Iterations <==

    Orbital Energies [Eh]
    ---------------------

    Doubly Occupied:                                                      

       1A    -20.560105     2A    -20.551786     3A    -15.651691  
       4A    -15.639107     5A    -11.430103     6A    -11.388596  
       7A    -11.346802     8A    -11.260992     9A     -1.442583  
      10A     -1.400166    11A     -1.317361    12A     -1.251193  
      13A     -1.090192    14A     -0.935192    15A     -0.905566  
      16A     -0.808892    17A     -0.767402    18A     -0.717025  
      19A     -0.679453    20A     -0.669862    21A     -0.654549  
      22A     -0.614257    23A     -0.602232    24A     -0.569967  
      25A     -0.526855    26A     -0.484095    27A     -0.448630  
      28A     -0.436871    29A     -0.367019  

    Virtual:                                                              

      30A      0.017902    31A      0.031075    32A      0.038965  
      33A      0.048004    34A      0.051706    35A      0.064881  
      36A      0.066565    37A      0.071101    38A      0.076223  
      39A      0.081132    40A      0.086373    41A      0.090524  
      42A      0.105369    43A      0.108243    44A      0.115730  
      45A      0.116623    46A      0.120441    47A      0.123921  
      48A      0.125899    49A      0.129767    50A      0.134764  
      51A      0.142813    52A      0.147128    53A      0.155682  
      54A      0.155951    55A      0.162548    56A      0.162822  
      57A      0.164957    58A      0.169628    59A      0.173060  
      60A      0.178313    61A      0.182165    62A      0.194931  
      63A      0.197188    64A      0.208446    65A      0.208644  
      66A      0.209390    67A      0.214414    68A      0.226161  
      69A      0.227477    70A      0.231983    71A      0.239032  
      72A      0.240912    73A      0.253192    74A      0.256423  
      75A      0.262123    76A      0.266013    77A      0.266819  
      78A      0.274391    79A      0.282442    80A      0.285505  
      81A      0.288214    82A      0.292387    83A      0.299519  
      84A      0.306423    85A      0.317540    86A      0.319208  
      87A      0.319723    88A      0.328441    89A      0.333153  
      90A      0.337822    91A      0.340042    92A      0.340314  
      93A      0.349013    94A      0.354799    95A      0.363111  
      96A      0.366920    97A      0.372910    98A      0.376073  
      99A      0.379174   100A      0.379595   101A      0.394747  
     102A      0.398269   103A      0.410431   104A      0.412231  
     105A      0.415463   106A      0.429269   107A      0.433020  
     108A      0.443633   109A      0.444054   110A      0.457740  
     111A      0.460067   112A      0.462978   113A      0.468579  
     114A      0.474480   115A      0.478814   116A      0.487838  
     117A      0.493289   118A      0.503741   119A      0.507681  
     120A      0.512161   121A      0.513936   122A      0.522869  
     123A      0.528279   124A      0.545471   125A      0.546321  
     126A      0.547835   127A      0.548985   128A      0.563655  
     129A      0.567656   130A      0.569574   131A      0.574769  
     132A      0.581889   133A      0.583760   134A      0.587448  
     135A      0.605250   136A      0.607896   137A      0.612419  
     138A      0.626306   139A      0.631235   140A      0.633426  
     141A      0.639542   142A      0.645199   143A      0.654952  
     144A      0.656888   145A      0.660109   146A      0.669184  
     147A      0.676427   148A      0.682394   149A      0.688630  
     150A      0.707242   151A      0.707650   152A      0.712809  
     153A      0.714137   154A      0.716885   155A      0.734225  
     156A      0.752201   157A      0.752683   158A      0.762872  
     159A      0.768015   160A      0.771778   161A      0.776406  
     162A      0.786586   163A      0.788444   164A      0.795591  
     165A      0.807429   166A      0.811928   167A      0.821307  
     168A      0.825970   169A      0.838575   170A      0.843325  
     171A      0.853405   172A      0.856437   173A      0.867193  
     174A      0.876414   175A      0.881033   176A      0.886567  
     177A      0.899721   178A      0.901853   179A      0.904200  
     180A      0.914215   181A      0.935026   182A      0.935998  
     183A      0.939448   184A      0.941346   185A      0.958967  
     186A      0.959263   187A      0.981679   188A      0.984140  
     189A      0.985310   190A      0.996787   191A      0.997288  
     192A      1.003753   193A      1.019375   194A      1.037964  
     195A      1.041154   196A      1.052715   197A      1.056071  
     198A      1.065235   199A      1.078757   200A      1.083785  
     201A      1.087536   202A      1.116032   203A      1.116480  
     204A      1.130408   205A      1.134544   206A      1.140384  
     207A      1.146582   208A      1.154164   209A      1.161930  
     210A      1.167165   211A      1.181916   212A      1.191113  
     213A      1.195979   214A      1.214890   215A      1.219856  
     216A      1.224404   217A      1.235045   218A      1.247553  
     219A      1.251675   220A      1.253118   221A      1.271845  
     222A      1.272618   223A      1.278090   224A      1.279066  
     225A      1.293225   226A      1.303720   227A      1.309517  
     228A      1.322066   229A      1.323110   230A      1.336850  
     231A      1.356871   232A      1.368314   233A      1.386074  
     234A      1.393726   235A      1.401623   236A      1.421888  
     237A      1.434013   238A      1.435740   239A      1.438825  
     240A      1.444045   241A      1.476190   242A      1.487781  
     243A      1.501628   244A      1.503316   245A      1.520676  
     246A      1.531460   247A      1.534890   248A      1.538001  
     249A      1.558749   250A      1.570728   251A      1.573277  
     252A      1.585690   253A      1.588560   254A      1.596185  
     255A      1.602993   256A      1.603021   257A      1.621549  
     258A      1.648122   259A      1.655192   260A      1.685373  
     261A      1.688593   262A      1.698785   263A      1.711926  
     264A      1.721190   265A      1.730494   266A      1.757529  
     267A      1.765781   268A      1.765847   269A      1.785486  
     270A      1.801942   271A      1.823190   272A      1.835579  
     273A      1.837329   274A      1.854976   275A      1.881073  
     276A      1.887695   277A      1.918060   278A      1.937748  
     279A      1.946279   280A      1.957596   281A      1.963875  
     282A      1.979583   283A      2.023050   284A      2.024339  
     285A      2.077667   286A      2.077990   287A      2.110098  
     288A      2.127611   289A      2.136603   290A      2.148478  
     291A      2.177741   292A      2.185315   293A      2.205758  
     294A      2.237215   295A      2.239201   296A      2.249200  
     297A      2.287820   298A      2.288114   299A      2.305147  
     300A      2.308101   301A      2.345380   302A      2.347826  
     303A      2.374235   304A      2.392648   305A      2.393347  
     306A      2.410185   307A      2.453431   308A      2.454482  
     309A      2.456416   310A      2.476580   311A      2.499015  
     312A      2.504371   313A      2.522151   314A      2.523772  
     315A      2.530054   316A      2.531331   317A      2.545922  
     318A      2.549243   319A      2.572425   320A      2.584664  
     321A      2.592635   322A      2.605000   323A      2.626784  
     324A      2.644292   325A      2.685771   326A      2.691084  
     327A      2.717125   328A      2.733866   329A      2.757479  
     330A      2.775680   331A      2.787699   332A      2.794948  
     333A      2.806159   334A      2.812672   335A      2.858116  
     336A      2.860745   337A      2.876152   338A      2.886980  
     339A      2.896196   340A      2.898979   341A      2.914640  
     342A      2.924451   343A      2.956942   344A      2.984419  
     345A      3.032346   346A      3.033781   347A      3.045992  
     348A      3.088780   349A      3.123528   350A      3.148622  
     351A      3.154774   352A      3.179886   353A      3.225732  
     354A      3.254059   355A      3.254506   356A      3.292258  
     357A      3.306428   358A      3.343357   359A      3.351977  
     360A      3.356476   361A      3.373357   362A      3.438533  
     363A      3.476347   364A      3.509233   365A      3.516225  
     366A      3.536643   367A      3.552627   368A      3.583772  
     369A      3.615623   370A      3.625356   371A      3.654314  
     372A      3.672648   373A      3.734882   374A      3.739310  
     375A      3.771526   376A      3.773667   377A      3.802606  
     378A      3.822776   379A      3.831039   380A      3.841912  
     381A      3.864988   382A      3.879219   383A      3.887821  
     384A      3.926910   385A      3.932551   386A      3.966939  
     387A      3.982995   388A      4.034429   389A      4.059636  
     390A      4.088021   391A      4.123553   392A      4.186191  
     393A      4.224854   394A      4.247102   395A      4.351538  
     396A      4.418104   397A      4.428896   398A      4.477953  
     399A      4.535601   400A      4.581556   401A      4.634882  
     402A      4.717979   403A      4.791347   404A      4.799754  
     405A      4.898708   406A      4.967591   407A      4.997423  
     408A      5.000918   409A      5.031985   410A      5.042626  
     411A      5.062188   412A      5.162058   413A      5.201342  
     414A      5.313159   415A      5.328897   416A      5.485044  
     417A      5.516460   418A      5.604607   419A      5.781889  
     420A      5.831330   421A      5.972000   422A      5.983644  
     423A      6.027238   424A      6.100974   425A      6.139500  
     426A      6.184795   427A      6.238579   428A      6.422592  
     429A      6.542057   430A      7.166265   431A      7.378871  
     432A      8.863285   433A     18.285978   434A     18.813178  
     435A     18.912528   436A     19.971533   437A     25.471912  
     438A     25.484842   439A     33.488951   440A     33.545043  

    Final Occupation by Irrep:
              A 
    DOCC [    29 ]

  @DF-RHF Final Energy:  -412.53071584629748

   => Energetics <=

    Nuclear Repulsion Energy =            357.0681924625236547
    One-Electron Energy =               -1270.1607379037429837
    Two-Electron Energy =                 500.5618295949217895
    Total Energy =                       -412.5307158462974826

Computation Completed


Properties will be evaluated at   0.000000,   0.000000,   0.000000 [a0]

Properties computed using the SCF density matrix

  Nuclear Dipole Moment: [e a0]
     X:   211.6480      Y:  -162.7661      Z:    -0.0009

  Electronic Dipole Moment: [e a0]
     X:  -210.1044      Y:   161.5944      Z:     0.0010

  Dipole Moment: [e a0]
     X:     1.5437      Y:    -1.1717      Z:     0.0000     Total:     1.9380

  Dipole Moment: [D]
     X:     3.9236      Y:    -2.9783      Z:     0.0001     Total:     4.9259


*** tstop() called on node51.bme.utexas.edu at Tue Sep 10 13:30:17 2019
Module time:
	user time   =     102.14 seconds =       1.70 minutes
	system time =       1.77 seconds =       0.03 minutes
	total time  =         31 seconds =       0.52 minutes
Total time:
	user time   =     301.31 seconds =       5.02 minutes
	system time =       5.33 seconds =       0.09 minutes
	total time  =         85 seconds =       1.42 minutes

  //>>>>>>>>>>>>>>>>>>>>>>>>>>>>>>>>>>>//
  //            Monomer B HF           //
  //<<<<<<<<<<<<<<<<<<<<<<<<<<<<<<<<<<<//


*** tstart() called on node51.bme.utexas.edu
*** at Tue Sep 10 13:30:17 2019

   => Loading Basis Set <=

    Name: AUG-CC-PVDZ
    Role: ORBITAL
    Keyword: BASIS
    atoms 1, 8, 13, 20          entry O          line   250 file /home/xy3866/psi4conda/share/psi4/basis/aug-cc-pvdz.gbs 
    atoms 2, 4-6, 14, 16, 18-19 entry C          line   178 file /home/xy3866/psi4conda/share/psi4/basis/aug-cc-pvdz.gbs 
    atoms 3, 7, 15, 17          entry N          line   214 file /home/xy3866/psi4conda/share/psi4/basis/aug-cc-pvdz.gbs 
    atoms 9-12, 21-24           entry H          line    36 file /home/xy3866/psi4conda/share/psi4/basis/aug-cc-pvdz.gbs 


         ---------------------------------------------------------
                                   SCF
               by Justin Turney, Rob Parrish, Andy Simmonett
                          and Daniel G. A. Smith
                              RHF Reference
                        4 Threads,  30517 MiB Core
         ---------------------------------------------------------

  ==> Geometry <==

    Molecular point group: c1
    Full point group: C1

    Geometry (in Angstrom), charge = 0, multiplicity = 1:

       Center              X                  Y                   Z               Mass       
    ------------   -----------------  -----------------  -----------------  -----------------
      Gh(O)           3.179502247647     0.658515707649     0.000125210821    15.994914619570
      Gh(C)           2.682989247647    -0.450068292351    -0.000052789179    12.000000000000
      Gh(N)           3.452955247647    -1.606760292351     0.000129210821    14.003074004430
      Gh(C)           2.926682247647    -2.868208292351     0.000120210821    12.000000000000
      Gh(C)           1.594702247647    -3.076785292351    -0.000003789179    12.000000000000
      Gh(C)           0.690347247647    -1.940366292351    -0.000177789179    12.000000000000
      Gh(N)           1.326552247647    -0.699788292351    -0.000116789179    14.003074004430
      Gh(O)          -0.531803752353    -2.021458292351    -0.000167789179    15.994914619570
      Gh(H)           1.178723247647    -4.069243292351     0.000042210821     1.007825032230
      Gh(H)           4.447453247647    -1.454387292351     0.000267210821     1.007825032230
      Gh(H)           0.722948247647     0.129280707649    -0.000119789179     1.007825032230
      Gh(H)           3.643727247647    -3.675825292351     0.000257210821     1.007825032230
         O            0.532193147647     0.914391707649    -0.000192889179    15.994914619570
         C           -0.693197852353     0.962266707649    -0.000174889179    12.000000000000
         N           -1.334347852353     2.201217707649    -0.000008889179    14.003074004430
         C           -2.691155852353     2.463596707649     0.000199110821    12.000000000000
         N           -3.454918852353     1.310772707649     0.000149110821    14.003074004430
         C           -2.923474852353     0.047193707649     0.000033110821    12.000000000000
         C           -1.592428852353    -0.172183292351    -0.000067889179    12.000000000000
         O           -3.166832852353     3.581268707649     0.000162110821    15.994914619570
         H           -1.171559852353    -1.165554292351    -0.000111889179     1.007825032230
         H           -4.450541852353     1.457675707649     0.000201110821     1.007825032230
         H           -0.734596852353     3.015226707649    -0.000058889179     1.007825032230
         H           -3.641886852353    -0.758933292351     0.000051110821     1.007825032230

  Running in c1 symmetry.

  Rotational constants: A =      0.04582  B =      0.01001  C =      0.00821 [cm^-1]
  Rotational constants: A =   1373.72635  B =    300.06901  C =    246.27426 [MHz]
  Nuclear repulsion =  357.213504648242292

  Charge       = 0
  Multiplicity = 1
  Electrons    = 58
  Nalpha       = 29
  Nbeta        = 29

  ==> Algorithm <==

  SCF Algorithm Type is DF.
  DIIS enabled.
  MOM disabled.
  Fractional occupation disabled.
  Guess Type is SAD.
  Energy threshold   = 1.00e-08
  Density threshold  = 1.00e-08
  Integral threshold = 0.00e+00

  ==> Primary Basis <==

  Basis Set: AUG-CC-PVDZ
    Blend: AUG-CC-PVDZ
    Number of shells: 184
    Number of basis function: 440
    Number of Cartesian functions: 472
    Spherical Harmonics?: true
    Max angular momentum: 2

   => Loading Basis Set <=

    Name: (AUG-CC-PVDZ AUX)
    Role: JKFIT
    Keyword: DF_BASIS_SCF
    atoms 1, 8, 13, 20          entry O          line   270 file /home/xy3866/psi4conda/share/psi4/basis/aug-cc-pvdz-jkfit.gbs 
    atoms 2, 4-6, 14, 16, 18-19 entry C          line   154 file /home/xy3866/psi4conda/share/psi4/basis/aug-cc-pvdz-jkfit.gbs 
    atoms 3, 7, 15, 17          entry N          line   212 file /home/xy3866/psi4conda/share/psi4/basis/aug-cc-pvdz-jkfit.gbs 
    atoms 9-12, 21-24           entry H          line    70 file /home/xy3866/psi4conda/share/psi4/basis/aug-cc-pvdz-jkfit.gbs 

  ==> Pre-Iterations <==

   -------------------------------------------------------
    Irrep   Nso     Nmo     Nalpha   Nbeta   Ndocc  Nsocc
   -------------------------------------------------------
     A        440     440       0       0       0       0
   -------------------------------------------------------
    Total     440     440      29      29      29       0
   -------------------------------------------------------

  ==> Integral Setup <==

  ==> DiskDFJK: Density-Fitted J/K Matrices <==

    J tasked:                  Yes
    K tasked:                  Yes
    wK tasked:                  No
    OpenMP threads:              4
    Integrals threads:           4
    Memory [MiB]:            22888
    Algorithm:                Core
    Integral Cache:           LOAD
    Schwarz Cutoff:          1E-12
    Fitting Condition:       1E-10

   => Auxiliary Basis Set <=

  Basis Set: (AUG-CC-PVDZ AUX)
    Blend: AUG-CC-PVDZ-JKFIT
    Number of shells: 544
    Number of basis function: 1632
    Number of Cartesian functions: 1896
    Spherical Harmonics?: true
    Max angular momentum: 3

  Minimum eigenvalue in the overlap matrix is 3.0526094655E-06.
  Using Symmetric Orthogonalization.

  SCF Guess: Superposition of Atomic Densities via on-the-fly atomic UHF.

  ==> Iterations <==

                           Total Energy        Delta E     RMS |[F,P]|

   @DF-RHF iter SAD:  -411.89393444452827   -4.11894e+02   0.00000e+00 
   @DF-RHF iter   1:  -412.28628517692414   -3.92351e-01   1.63855e-03 DIIS
   @DF-RHF iter   2:  -412.44895620226532   -1.62671e-01   1.06404e-03 DIIS
   @DF-RHF iter   3:  -412.52580829665493   -7.68521e-02   1.98928e-04 DIIS
   @DF-RHF iter   4:  -412.53004565944133   -4.23736e-03   7.90454e-05 DIIS
   @DF-RHF iter   5:  -412.53088393813260   -8.38279e-04   1.61901e-05 DIIS
   @DF-RHF iter   6:  -412.53098096901323   -9.70309e-05   8.31388e-06 DIIS
   @DF-RHF iter   7:  -412.53099882147461   -1.78525e-05   3.19879e-06 DIIS
   @DF-RHF iter   8:  -412.53100172235355   -2.90088e-06   1.12214e-06 DIIS
   @DF-RHF iter   9:  -412.53100194126102   -2.18907e-07   4.46623e-07 DIIS
   @DF-RHF iter  10:  -412.53100199606695   -5.48059e-08   1.43643e-07 DIIS
   @DF-RHF iter  11:  -412.53100200203005   -5.96310e-09   4.89056e-08 DIIS
   @DF-RHF iter  12:  -412.53100200253135   -5.01302e-10   1.51454e-08 DIIS
   @DF-RHF iter  13:  -412.53100200259041   -5.90603e-11   5.28814e-09 DIIS
  Energy and wave function converged.


  ==> Post-Iterations <==

    Orbital Energies [Eh]
    ---------------------

    Doubly Occupied:                                                      

       1A    -20.559781     2A    -20.550258     3A    -15.653484  
       4A    -15.635383     5A    -11.429494     6A    -11.388215  
       7A    -11.349106     8A    -11.263342     9A     -1.442579  
      10A     -1.399396    11A     -1.318681    12A     -1.249311  
      13A     -1.093492    14A     -0.937731    15A     -0.905063  
      16A     -0.810451    17A     -0.768300    18A     -0.716628  
      19A     -0.678910    20A     -0.670112    21A     -0.656198  
      22A     -0.614462    23A     -0.603332    24A     -0.569839  
      25A     -0.526509    26A     -0.484694    27A     -0.448279  
      28A     -0.435125    29A     -0.369450  

    Virtual:                                                              

      30A      0.015956    31A      0.027967    32A      0.039942  
      33A      0.047395    34A      0.052453    35A      0.063960  
      36A      0.064280    37A      0.070856    38A      0.074789  
      39A      0.079900    40A      0.087658    41A      0.089197  
      42A      0.104233    43A      0.107692    44A      0.108219  
      45A      0.115243    46A      0.123154    47A      0.124561  
      48A      0.125449    49A      0.129831    50A      0.133393  
      51A      0.138723    52A      0.145405    53A      0.152247  
      54A      0.154808    55A      0.156418    56A      0.161553  
      57A      0.166628    58A      0.176207    59A      0.176478  
      60A      0.177627    61A      0.183903    62A      0.194879  
      63A      0.197556    64A      0.204053    65A      0.205855  
      66A      0.215479    67A      0.217946    68A      0.221211  
      69A      0.230349    70A      0.232174    71A      0.235216  
      72A      0.244950    73A      0.254453    74A      0.257345  
      75A      0.259417    76A      0.263164    77A      0.272592  
      78A      0.276590    79A      0.281802    80A      0.285045  
      81A      0.287511    82A      0.294809    83A      0.299321  
      84A      0.302656    85A      0.306051    86A      0.310302  
      87A      0.317118    88A      0.325557    89A      0.325643  
      90A      0.332028    91A      0.339801    92A      0.346871  
      93A      0.350942    94A      0.357415    95A      0.360693  
      96A      0.362169    97A      0.364638    98A      0.381483  
      99A      0.381888   100A      0.387083   101A      0.393940  
     102A      0.395150   103A      0.406070   104A      0.418411  
     105A      0.425152   106A      0.427477   107A      0.431783  
     108A      0.435529   109A      0.445184   110A      0.456557  
     111A      0.457089   112A      0.463980   113A      0.468234  
     114A      0.475844   115A      0.479638   116A      0.480612  
     117A      0.487286   118A      0.500202   119A      0.511917  
     120A      0.512788   121A      0.520440   122A      0.531025  
     123A      0.536460   124A      0.540104   125A      0.546216  
     126A      0.549525   127A      0.551867   128A      0.557921  
     129A      0.558927   130A      0.575788   131A      0.576012  
     132A      0.585364   133A      0.592169   134A      0.602865  
     135A      0.608219   136A      0.610912   137A      0.613958  
     138A      0.622052   139A      0.628094   140A      0.638315  
     141A      0.639289   142A      0.643992   143A      0.648794  
     144A      0.649468   145A      0.654865   146A      0.661955  
     147A      0.666833   148A      0.671175   149A      0.681255  
     150A      0.696896   151A      0.699935   152A      0.711560  
     153A      0.718167   154A      0.726703   155A      0.729971  
     156A      0.734047   157A      0.744887   158A      0.757604  
     159A      0.763937   160A      0.775916   161A      0.788391  
     162A      0.788782   163A      0.803174   164A      0.808848  
     165A      0.811227   166A      0.819166   167A      0.823135  
     168A      0.831078   169A      0.835805   170A      0.849729  
     171A      0.852109   172A      0.858174   173A      0.867766  
     174A      0.868264   175A      0.872638   176A      0.883111  
     177A      0.885348   178A      0.891395   179A      0.903363  
     180A      0.926027   181A      0.930472   182A      0.934329  
     183A      0.944966   184A      0.944987   185A      0.958125  
     186A      0.969370   187A      0.972817   188A      0.983262  
     189A      0.993356   190A      0.995390   191A      0.999872  
     192A      1.013688   193A      1.036119   194A      1.042303  
     195A      1.049419   196A      1.058572   197A      1.062450  
     198A      1.063384   199A      1.075727   200A      1.088581  
     201A      1.097165   202A      1.097693   203A      1.114465  
     204A      1.124320   205A      1.128817   206A      1.141261  
     207A      1.150213   208A      1.156315   209A      1.157374  
     210A      1.176647   211A      1.185621   212A      1.203688  
     213A      1.205065   214A      1.209031   215A      1.224237  
     216A      1.226846   217A      1.246135   218A      1.246894  
     219A      1.256708   220A      1.262860   221A      1.269519  
     222A      1.278899   223A      1.283777   224A      1.289076  
     225A      1.294941   226A      1.312423   227A      1.316511  
     228A      1.333212   229A      1.336032   230A      1.354639  
     231A      1.360633   232A      1.373059   233A      1.384827  
     234A      1.386669   235A      1.404970   236A      1.416016  
     237A      1.419303   238A      1.434724   239A      1.438802  
     240A      1.459359   241A      1.469888   242A      1.472826  
     243A      1.487832   244A      1.504011   245A      1.512163  
     246A      1.522772   247A      1.532749   248A      1.535352  
     249A      1.548848   250A      1.574391   251A      1.589371  
     252A      1.604823   253A      1.610280   254A      1.620111  
     255A      1.623186   256A      1.630041   257A      1.650684  
     258A      1.657742   259A      1.677134   260A      1.692272  
     261A      1.698441   262A      1.720735   263A      1.721110  
     264A      1.733752   265A      1.758265   266A      1.785889  
     267A      1.813125   268A      1.813629   269A      1.827414  
     270A      1.843676   271A      1.851643   272A      1.853965  
     273A      1.857247   274A      1.871960   275A      1.911709  
     276A      1.928228   277A      1.951845   278A      1.952794  
     279A      1.971371   280A      1.995398   281A      1.996001  
     282A      2.023712   283A      2.028199   284A      2.051838  
     285A      2.053381   286A      2.062039   287A      2.092957  
     288A      2.105697   289A      2.128463   290A      2.142861  
     291A      2.176677   292A      2.183810   293A      2.201868  
     294A      2.212116   295A      2.220324   296A      2.244552  
     297A      2.252430   298A      2.284626   299A      2.289780  
     300A      2.301208   301A      2.320021   302A      2.324490  
     303A      2.329130   304A      2.340398   305A      2.343882  
     306A      2.351373   307A      2.374260   308A      2.389122  
     309A      2.451074   310A      2.464344   311A      2.466780  
     312A      2.476846   313A      2.492837   314A      2.505151  
     315A      2.516905   316A      2.524551   317A      2.568275  
     318A      2.580992   319A      2.589175   320A      2.607622  
     321A      2.616741   322A      2.624643   323A      2.646570  
     324A      2.666725   325A      2.688244   326A      2.709940  
     327A      2.719122   328A      2.729131   329A      2.745571  
     330A      2.770674   331A      2.781529   332A      2.783756  
     333A      2.819955   334A      2.828197   335A      2.834719  
     336A      2.849205   337A      2.853496   338A      2.872168  
     339A      2.885855   340A      2.912154   341A      2.927884  
     342A      2.928207   343A      2.943435   344A      2.979877  
     345A      2.987503   346A      3.005930   347A      3.058961  
     348A      3.066780   349A      3.085761   350A      3.102553  
     351A      3.172979   352A      3.184319   353A      3.206489  
     354A      3.237820   355A      3.246437   356A      3.273396  
     357A      3.298230   358A      3.335382   359A      3.347758  
     360A      3.370278   361A      3.385534   362A      3.399809  
     363A      3.446519   364A      3.509363   365A      3.512893  
     366A      3.543828   367A      3.553427   368A      3.574966  
     369A      3.603784   370A      3.658229   371A      3.699522  
     372A      3.729648   373A      3.730752   374A      3.738069  
     375A      3.806117   376A      3.811248   377A      3.812438  
     378A      3.829757   379A      3.840553   380A      3.863931  
     381A      3.864444   382A      3.898896   383A      3.907481  
     384A      3.936775   385A      3.994307   386A      3.999072  
     387A      4.021907   388A      4.089484   389A      4.117810  
     390A      4.176236   391A      4.211896   392A      4.219200  
     393A      4.241963   394A      4.312953   395A      4.361358  
     396A      4.407482   397A      4.459652   398A      4.542271  
     399A      4.591525   400A      4.635263   401A      4.719567  
     402A      4.735398   403A      4.828585   404A      4.866262  
     405A      4.889481   406A      4.989447   407A      4.989466  
     408A      5.037100   409A      5.070638   410A      5.076059  
     411A      5.131800   412A      5.142873   413A      5.176305  
     414A      5.254858   415A      5.399030   416A      5.514921  
     417A      5.615138   418A      5.696683   419A      5.805094  
     420A      5.918296   421A      6.011450   422A      6.061295  
     423A      6.086537   424A      6.097979   425A      6.185216  
     426A      6.262759   427A      6.294165   428A      6.575009  
     429A      6.851698   430A      7.119207   431A      7.261570  
     432A      7.513011   433A     18.208576   434A     18.879553  
     435A     18.912864   436A     19.758249   437A     25.476084  
     438A     25.678302   439A     33.567578   440A     33.583117  

    Final Occupation by Irrep:
              A 
    DOCC [    29 ]

  @DF-RHF Final Energy:  -412.53100200259041

   => Energetics <=

    Nuclear Repulsion Energy =            357.2135046482422922
    One-Electron Energy =               -1270.4338043072905293
    Two-Electron Energy =                 500.6892976564578248
    Total Energy =                       -412.5310020025904123

Computation Completed


Properties will be evaluated at   0.000000,   0.000000,   0.000000 [a0]

Properties computed using the SCF density matrix

  Nuclear Dipole Moment: [e a0]
     X:  -211.6533      Y:   156.6637      Z:     0.0014

  Electronic Dipole Moment: [e a0]
     X:   210.0660      Y:  -157.9131      Z:    -0.0013

  Dipole Moment: [e a0]
     X:    -1.5873      Y:    -1.2494      Z:     0.0001     Total:     2.0200

  Dipole Moment: [D]
     X:    -4.0345      Y:    -3.1757      Z:     0.0002     Total:     5.1344


*** tstop() called on node51.bme.utexas.edu at Tue Sep 10 13:30:43 2019
Module time:
	user time   =      91.70 seconds =       1.53 minutes
	system time =       1.76 seconds =       0.03 minutes
	total time  =         26 seconds =       0.43 minutes
Total time:
	user time   =     393.04 seconds =       6.55 minutes
	system time =       7.09 seconds =       0.12 minutes
	total time  =        111 seconds =       1.85 minutes
  Constructing Basis Sets for SAPT...

   => Loading Basis Set <=

    Name: (AUG-CC-PVDZ AUX)
    Role: RIFIT
    Keyword: DF_BASIS_SAPT
    atoms 1, 8, 13, 20          entry O          line   204 file /home/xy3866/psi4conda/share/psi4/basis/aug-cc-pvdz-ri.gbs 
    atoms 2, 4-6, 14, 16, 18-19 entry C          line   112 file /home/xy3866/psi4conda/share/psi4/basis/aug-cc-pvdz-ri.gbs 
    atoms 3, 7, 15, 17          entry N          line   158 file /home/xy3866/psi4conda/share/psi4/basis/aug-cc-pvdz-ri.gbs 
    atoms 9-12, 21-24           entry H          line    30 file /home/xy3866/psi4conda/share/psi4/basis/aug-cc-pvdz-ri.gbs 


  //>>>>>>>>>>>>>>>>>>>>>>>>>>>>>>>>>>>//
  //               SAPT2+              //
  //<<<<<<<<<<<<<<<<<<<<<<<<<<<<<<<<<<<//


*** tstart() called on node51.bme.utexas.edu
*** at Tue Sep 10 13:30:43 2019

        SAPT2+  
    Ed Hohenstein
     6 June 2009

      Orbital Information
  --------------------------
    NSO        =       440
    NMO        =       440
    NRI        =      1336
    NOCC A     =        29
    NOCC B     =        29
    FOCC A     =         8
    FOCC B     =         8
    NVIR A     =       411
    NVIR B     =       411

    Estimated memory usage: 5214.9 MB

    Natural Orbital Cutoff:   1.000E-06
    Disp(T3) Truncation:            Yes
    CCD (vv|vv) Truncation:         Yes
    MBPT T2 Truncation:             Yes

    Monomer A: 202 virtual orbitals dropped
    Monomer B: 202 virtual orbitals dropped

    Elst10,r            =    -0.260732039793 [Eh]
    Exch10 (S^2)        =     0.752460515343 [Eh]
    Exch10              =     0.932882618772 [Eh]
    Ind20,r (A<-B)      =    -0.337195797441 [Eh]
    Ind20,r (B<-A)      =    -0.275639552427 [Eh]
    Ind20,r             =    -0.612835349868 [Eh]
    Exch-Ind20,r (A<-B) =     0.176245649739 [Eh]
    Exch-Ind20,r (B<-A) =     0.091166175055 [Eh]
    Exch-Ind20,r        =     0.267411824794 [Eh]
    Disp20              =    -0.116929606560 [Eh]
    Disp20 (NO)         =    -0.112285364105 [Eh]
    Exch-Disp20         =     0.018980846703 [Eh]
    Elst12,r            =    -0.001252195005 [Eh]
    Exch11              =    -0.007929648817 [Eh]
    Exch12              =     0.016752364878 [Eh]
    Ind22               =    -0.058498344942 [Eh]
    Disp21              =     0.025652429231 [Eh]
