
    -----------------------------------------------------------------------
          Psi4: An Open-Source Ab Initio Electronic Structure Package
                               Psi4 1.3.2 release

                         Git: Rev {HEAD} ecbda83 


    R. M. Parrish, L. A. Burns, D. G. A. Smith, A. C. Simmonett,
    A. E. DePrince III, E. G. Hohenstein, U. Bozkaya, A. Yu. Sokolov,
    R. Di Remigio, R. M. Richard, J. F. Gonthier, A. M. James,
    H. R. McAlexander, A. Kumar, M. Saitow, X. Wang, B. P. Pritchard,
    P. Verma, H. F. Schaefer III, K. Patkowski, R. A. King, E. F. Valeev,
    F. A. Evangelista, J. M. Turney, T. D. Crawford, and C. D. Sherrill,
    J. Chem. Theory Comput. 13(7) pp 3185--3197 (2017).
    (doi: 10.1021/acs.jctc.7b00174)


                         Additional Contributions by
    P. Kraus, H. Kruse, M. H. Lechner, M. C. Schieber, R. A. Shaw,
    A. Alenaizan, R. Galvelis, Z. L. Glick, S. Lehtola, and J. P. Misiewicz

    -----------------------------------------------------------------------


    Psi4 started on: Tuesday, 10 September 2019 01:28PM

    Process ID: 57401
    Host:       node51.bme.utexas.edu
    PSIDATADIR: /home/xy3866/psi4conda/share/psi4
    Memory:     500.0 MiB
    Threads:    4
    
  ==> Input File <==

--------------------------------------------------------------------------
#psi4
#
memory 32 gb

molecule  {
0 1
  O        3.6417540     0.2907420     0.0000970
  C        3.1452410    -0.8178420    -0.0000810
  N        3.9152070    -1.9745340     0.0001010
  C        3.3889340    -3.2359820     0.0000920
  C        2.0569540    -3.4445590    -0.0000320
  C        1.1525990    -2.3081400    -0.0002060
  N        1.7888040    -1.0675620    -0.0001450
  O       -0.0695520    -2.3892320    -0.0001960
  H        1.6409750    -4.4370170     0.0000140
  H        4.9097050    -1.8221610     0.0002390
  H        1.1852000    -0.2384930    -0.0001480
  H        4.1059790    -4.0435990     0.0002290
--
0 1
  O        0.6871216     0.7916350    -0.0002174
  C       -0.5382694     0.8395100    -0.0001994
  N       -1.1794194     2.0784610    -0.0000334
  C       -2.5362274     2.3408400     0.0001746
  N       -3.2999904     1.1880160     0.0001246
  C       -2.7685464    -0.0755630     0.0000086
  C       -1.4375004    -0.2949400    -0.0000924
  O       -3.0119044     3.4585120     0.0001376
  H       -1.0166314    -1.2883110    -0.0001364
  H       -4.2956134     1.3349190     0.0001766
  H       -0.5796684     2.8924700    -0.0000834
  H       -3.4869584    -0.8816900     0.0000266
units angstrom
no_reorient  #important for SAPT in psi4, default
symmetry c1  #important for SAPT in psi4, default
}

set {
basis aug-cc-pVDZ
scf_type DF
freeze_core True
}
energy('sapt2+')
--------------------------------------------------------------------------

  Memory set to  29.802 GiB by Python driver.

  //>>>>>>>>>>>>>>>>>>>>>>>>>>>>>>>>>>>//
  //              Dimer HF             //
  //<<<<<<<<<<<<<<<<<<<<<<<<<<<<<<<<<<<//


*** tstart() called on node51.bme.utexas.edu
*** at Tue Sep 10 13:28:52 2019

   => Loading Basis Set <=

    Name: AUG-CC-PVDZ
    Role: ORBITAL
    Keyword: BASIS
    atoms 1, 8, 13, 20          entry O          line   250 file /home/xy3866/psi4conda/share/psi4/basis/aug-cc-pvdz.gbs 
    atoms 2, 4-6, 14, 16, 18-19 entry C          line   178 file /home/xy3866/psi4conda/share/psi4/basis/aug-cc-pvdz.gbs 
    atoms 3, 7, 15, 17          entry N          line   214 file /home/xy3866/psi4conda/share/psi4/basis/aug-cc-pvdz.gbs 
    atoms 9-12, 21-24           entry H          line    36 file /home/xy3866/psi4conda/share/psi4/basis/aug-cc-pvdz.gbs 


         ---------------------------------------------------------
                                   SCF
               by Justin Turney, Rob Parrish, Andy Simmonett
                          and Daniel G. A. Smith
                              RHF Reference
                        4 Threads,  30517 MiB Core
         ---------------------------------------------------------

  ==> Geometry <==

    Molecular point group: c1
    Full point group: C1

    Geometry (in Angstrom), charge = 0, multiplicity = 1:

       Center              X                  Y                   Z               Mass       
    ------------   -----------------  -----------------  -----------------  -----------------
         O            3.333163897647     0.536007207649     0.000123360821    15.994914619570
         C            2.836650897647    -0.572576792351    -0.000054639179    12.000000000000
         N            3.606616897647    -1.729268792351     0.000127360821    14.003074004430
         C            3.080343897647    -2.990716792351     0.000118360821    12.000000000000
         C            1.748363897647    -3.199293792351    -0.000005639179    12.000000000000
         C            0.844008897647    -2.062874792351    -0.000179639179    12.000000000000
         N            1.480213897647    -0.822296792351    -0.000118639179    14.003074004430
         O           -0.378142102353    -2.143966792351    -0.000169639179    15.994914619570
         H            1.332384897647    -4.191751792351     0.000040360821     1.007825032230
         H            4.601114897647    -1.576895792351     0.000265360821     1.007825032230
         H            0.876609897647     0.006772207649    -0.000121639179     1.007825032230
         H            3.797388897647    -3.798333792351     0.000255360821     1.007825032230
         O            0.378531497647     1.036900207649    -0.000191039179    15.994914619570
         C           -0.846859502353     1.084775207649    -0.000173039179    12.000000000000
         N           -1.488009502353     2.323726207649    -0.000007039179    14.003074004430
         C           -2.844817502353     2.586105207649     0.000200960821    12.000000000000
         N           -3.608580502353     1.433281207649     0.000150960821    14.003074004430
         C           -3.077136502353     0.169702207649     0.000034960821    12.000000000000
         C           -1.746090502353    -0.049674792351    -0.000066039179    12.000000000000
         O           -3.320494502353     3.703777207649     0.000163960821    15.994914619570
         H           -1.325221502353    -1.043045792351    -0.000110039179     1.007825032230
         H           -4.604203502353     1.580184207649     0.000202960821     1.007825032230
         H           -0.888258502353     3.137735207649    -0.000057039179     1.007825032230
         H           -3.795548502353    -0.636424792351     0.000052960821     1.007825032230

  Running in c1 symmetry.

  Rotational constants: A =      0.04579  B =      0.00885  C =      0.00742 [cm^-1]
  Rotational constants: A =   1372.68908  B =    265.40554  C =    222.40430 [MHz]
  Nuclear repulsion = 1076.104540487175200

  Charge       = 0
  Multiplicity = 1
  Electrons    = 116
  Nalpha       = 58
  Nbeta        = 58

  ==> Algorithm <==

  SCF Algorithm Type is DF.
  DIIS enabled.
  MOM disabled.
  Fractional occupation disabled.
  Guess Type is SAD.
  Energy threshold   = 1.00e-08
  Density threshold  = 1.00e-08
  Integral threshold = 0.00e+00

  ==> Primary Basis <==

  Basis Set: AUG-CC-PVDZ
    Blend: AUG-CC-PVDZ
    Number of shells: 184
    Number of basis function: 440
    Number of Cartesian functions: 472
    Spherical Harmonics?: true
    Max angular momentum: 2

   => Loading Basis Set <=

    Name: (AUG-CC-PVDZ AUX)
    Role: JKFIT
    Keyword: DF_BASIS_SCF
    atoms 1, 8, 13, 20          entry O          line   270 file /home/xy3866/psi4conda/share/psi4/basis/aug-cc-pvdz-jkfit.gbs 
    atoms 2, 4-6, 14, 16, 18-19 entry C          line   154 file /home/xy3866/psi4conda/share/psi4/basis/aug-cc-pvdz-jkfit.gbs 
    atoms 3, 7, 15, 17          entry N          line   212 file /home/xy3866/psi4conda/share/psi4/basis/aug-cc-pvdz-jkfit.gbs 
    atoms 9-12, 21-24           entry H          line    70 file /home/xy3866/psi4conda/share/psi4/basis/aug-cc-pvdz-jkfit.gbs 

  ==> Pre-Iterations <==

   -------------------------------------------------------
    Irrep   Nso     Nmo     Nalpha   Nbeta   Ndocc  Nsocc
   -------------------------------------------------------
     A        440     440       0       0       0       0
   -------------------------------------------------------
    Total     440     440      58      58      58       0
   -------------------------------------------------------

  ==> Integral Setup <==

  ==> DiskDFJK: Density-Fitted J/K Matrices <==

    J tasked:                  Yes
    K tasked:                  Yes
    wK tasked:                  No
    OpenMP threads:              4
    Integrals threads:           4
    Memory [MiB]:            22888
    Algorithm:                Core
    Integral Cache:           SAVE
    Schwarz Cutoff:          1E-12
    Fitting Condition:       1E-10

   => Auxiliary Basis Set <=

  Basis Set: (AUG-CC-PVDZ AUX)
    Blend: AUG-CC-PVDZ-JKFIT
    Number of shells: 544
    Number of basis function: 1632
    Number of Cartesian functions: 1896
    Spherical Harmonics?: true
    Max angular momentum: 3

  Minimum eigenvalue in the overlap matrix is 3.7965724600E-06.
  Using Symmetric Orthogonalization.

  SCF Guess: Superposition of Atomic Densities via on-the-fly atomic UHF.

  ==> Iterations <==

                           Total Energy        Delta E     RMS |[F,P]|

   @DF-RHF iter SAD:  -824.61117145254025   -8.24611e+02   0.00000e+00 
   @DF-RHF iter   1:  -824.51415109808829    9.70204e-02   2.27086e-03 DIIS
   @DF-RHF iter   2:  -824.84876377175715   -3.34613e-01   1.34465e-03 DIIS
   @DF-RHF iter   3:  -824.97393509338838   -1.25171e-01   2.72296e-04 DIIS
   @DF-RHF iter   4:  -824.98162036076792   -7.68527e-03   1.08322e-04 DIIS
   @DF-RHF iter   5:  -824.98311239804821   -1.49204e-03   2.12981e-05 DIIS
   @DF-RHF iter   6:  -824.98328484429339   -1.72446e-04   1.15982e-05 DIIS
   @DF-RHF iter   7:  -824.98332059675329   -3.57525e-05   4.08359e-06 DIIS
   @DF-RHF iter   8:  -824.98332662962343   -6.03287e-06   1.25589e-06 DIIS
   @DF-RHF iter   9:  -824.98332698771628   -3.58093e-07   4.87744e-07 DIIS
   @DF-RHF iter  10:  -824.98332705227199   -6.45557e-08   1.86070e-07 DIIS
   @DF-RHF iter  11:  -824.98332706096460   -8.69261e-09   7.31422e-08 DIIS
   @DF-RHF iter  12:  -824.98332706207270   -1.10811e-09   2.02795e-08 DIIS
   @DF-RHF iter  13:  -824.98332706218162   -1.08912e-10   7.78779e-09 DIIS
  Energy and wave function converged.


  ==> Post-Iterations <==

    Orbital Energies [Eh]
    ---------------------

    Doubly Occupied:                                                      

       1A    -20.572620     2A    -20.560473     3A    -20.535936  
       4A    -20.527563     5A    -15.649997     6A    -15.646374  
       7A    -15.628772     8A    -15.557886     9A    -11.431113  
      10A    -11.409857    11A    -11.394736    12A    -11.373109  
      13A    -11.337508    14A    -11.330819    15A    -11.242144  
      16A    -11.225024    17A     -1.465516    18A     -1.436894  
      19A     -1.412784    20A     -1.395177    21A     -1.320266  
      22A     -1.291921    23A     -1.262180    24A     -1.212550  
      25A     -1.084470    26A     -1.071290    27A     -0.945651  
      28A     -0.936635    29A     -0.903076    30A     -0.876415  
      31A     -0.817396    32A     -0.809040    33A     -0.769798  
      34A     -0.749026    35A     -0.743910    36A     -0.713966  
      37A     -0.705876    38A     -0.674779    39A     -0.670930  
      40A     -0.650941    41A     -0.640098    42A     -0.632871  
      43A     -0.621679    44A     -0.606398    45A     -0.597593  
      46A     -0.584248    47A     -0.559388    48A     -0.544386  
      49A     -0.520979    50A     -0.499636    51A     -0.489420  
      52A     -0.467979    53A     -0.458777    54A     -0.439314  
      55A     -0.413101    56A     -0.403061    57A     -0.359609  
      58A     -0.349735  

    Virtual:                                                              

      59A      0.023597    60A      0.025428    61A      0.043043  
      62A      0.049490    63A      0.052939    64A      0.064278  
      65A      0.068184    66A      0.071561    67A      0.077778  
      68A      0.083413    69A      0.084634    70A      0.097179  
      71A      0.105790    72A      0.114176    73A      0.117363  
      74A      0.120590    75A      0.120751    76A      0.126408  
      77A      0.129402    78A      0.132017    79A      0.134032  
      80A      0.144101    81A      0.146759    82A      0.152475  
      83A      0.153938    84A      0.156990    85A      0.163415  
      86A      0.165959    87A      0.168733    88A      0.169727  
      89A      0.177842    90A      0.183124    91A      0.187518  
      92A      0.193958    93A      0.196135    94A      0.206928  
      95A      0.209457    96A      0.211545    97A      0.217222  
      98A      0.227105    99A      0.232875   100A      0.243524  
     101A      0.251756   102A      0.252863   103A      0.264121  
     104A      0.271743   105A      0.273961   106A      0.277876  
     107A      0.278987   108A      0.284818   109A      0.289439  
     110A      0.294162   111A      0.303200   112A      0.306117  
     113A      0.313663   114A      0.315259   115A      0.320088  
     116A      0.326541   117A      0.328537   118A      0.334570  
     119A      0.338106   120A      0.343507   121A      0.344546  
     122A      0.351908   123A      0.354964   124A      0.357548  
     125A      0.366500   126A      0.367686   127A      0.371110  
     128A      0.376302   129A      0.380109   130A      0.384301  
     131A      0.385573   132A      0.391805   133A      0.396398  
     134A      0.403639   135A      0.411529   136A      0.415185  
     137A      0.420326   138A      0.427353   139A      0.430508  
     140A      0.433303   141A      0.442775   142A      0.445433  
     143A      0.453096   144A      0.453331   145A      0.462321  
     146A      0.468024   147A      0.470724   148A      0.482079  
     149A      0.484688   150A      0.487939   151A      0.489884  
     152A      0.508938   153A      0.513922   154A      0.515751  
     155A      0.521903   156A      0.530618   157A      0.539760  
     158A      0.548934   159A      0.557709   160A      0.560144  
     161A      0.571513   162A      0.572809   163A      0.573773  
     164A      0.584800   165A      0.588556   166A      0.605001  
     167A      0.605476   168A      0.619058   169A      0.623174  
     170A      0.623600   171A      0.632620   172A      0.634292  
     173A      0.641841   174A      0.648596   175A      0.652450  
     176A      0.657629   177A      0.663314   178A      0.670382  
     179A      0.674033   180A      0.686992   181A      0.692739  
     182A      0.699643   183A      0.706897   184A      0.715459  
     185A      0.717475   186A      0.728401   187A      0.735597  
     188A      0.736582   189A      0.746780   190A      0.756649  
     191A      0.758360   192A      0.760257   193A      0.775821  
     194A      0.780593   195A      0.783806   196A      0.790598  
     197A      0.793539   198A      0.795640   199A      0.814141  
     200A      0.824199   201A      0.827542   202A      0.832796  
     203A      0.839344   204A      0.839526   205A      0.850502  
     206A      0.856580   207A      0.860472   208A      0.862802  
     209A      0.871312   210A      0.875985   211A      0.876666  
     212A      0.887754   213A      0.890962   214A      0.894088  
     215A      0.904647   216A      0.910942   217A      0.923445  
     218A      0.943824   219A      0.952837   220A      0.953815  
     221A      0.959767   222A      0.968091   223A      0.971675  
     224A      0.981429   225A      0.985028   226A      1.003195  
     227A      1.003250   228A      1.019144   229A      1.021957  
     230A      1.025775   231A      1.028076   232A      1.041355  
     233A      1.049823   234A      1.056014   235A      1.066254  
     236A      1.070038   237A      1.072413   238A      1.087019  
     239A      1.095659   240A      1.102247   241A      1.113523  
     242A      1.130189   243A      1.133994   244A      1.142005  
     245A      1.147491   246A      1.158665   247A      1.171456  
     248A      1.183944   249A      1.195614   250A      1.198287  
     251A      1.205194   252A      1.207227   253A      1.236322  
     254A      1.236507   255A      1.255638   256A      1.262091  
     257A      1.268361   258A      1.272288   259A      1.281702  
     260A      1.285519   261A      1.292862   262A      1.322171  
     263A      1.322244   264A      1.346022   265A      1.360572  
     266A      1.364211   267A      1.367101   268A      1.382950  
     269A      1.411122   270A      1.417422   271A      1.424407  
     272A      1.447260   273A      1.457076   274A      1.480532  
     275A      1.487209   276A      1.496642   277A      1.518769  
     278A      1.539690   279A      1.550098   280A      1.566865  
     281A      1.569545   282A      1.572583   283A      1.587684  
     284A      1.600352   285A      1.608672   286A      1.610862  
     287A      1.614003   288A      1.618190   289A      1.640846  
     290A      1.657574   291A      1.663901   292A      1.671686  
     293A      1.676376   294A      1.681607   295A      1.698345  
     296A      1.724601   297A      1.743436   298A      1.745063  
     299A      1.758099   300A      1.774031   301A      1.791995  
     302A      1.814083   303A      1.815176   304A      1.820006  
     305A      1.834282   306A      1.844229   307A      1.853185  
     308A      1.872390   309A      1.875718   310A      1.875925  
     311A      1.906520   312A      1.917536   313A      1.926285  
     314A      1.943752   315A      1.958725   316A      1.965885  
     317A      1.966399   318A      1.967141   319A      1.974984  
     320A      1.987313   321A      2.000274   322A      2.024051  
     323A      2.024257   324A      2.031787   325A      2.037308  
     326A      2.049925   327A      2.066879   328A      2.081745  
     329A      2.088927   330A      2.108109   331A      2.110419  
     332A      2.128297   333A      2.153235   334A      2.168632  
     335A      2.183497   336A      2.187561   337A      2.212523  
     338A      2.230396   339A      2.242799   340A      2.254419  
     341A      2.264096   342A      2.277131   343A      2.284005  
     344A      2.289229   345A      2.303159   346A      2.305617  
     347A      2.324307   348A      2.328720   349A      2.345150  
     350A      2.356063   351A      2.369491   352A      2.381358  
     353A      2.395819   354A      2.419097   355A      2.435046  
     356A      2.464189   357A      2.465199   358A      2.475374  
     359A      2.484294   360A      2.489204   361A      2.510391  
     362A      2.522151   363A      2.530748   364A      2.542654  
     365A      2.561647   366A      2.569976   367A      2.617706  
     368A      2.628258   369A      2.643673   370A      2.654731  
     371A      2.679168   372A      2.691241   373A      2.721424  
     374A      2.729330   375A      2.777184   376A      2.786092  
     377A      2.793410   378A      2.802422   379A      2.805556  
     380A      2.827887   381A      2.832167   382A      2.839851  
     383A      2.847991   384A      2.864497   385A      2.891586  
     386A      2.892089   387A      2.895840   388A      2.923331  
     389A      2.929684   390A      2.936220   391A      2.986241  
     392A      2.994170   393A      3.025432   394A      3.034779  
     395A      3.088927   396A      3.117240   397A      3.176413  
     398A      3.178247   399A      3.214171   400A      3.225801  
     401A      3.255910   402A      3.292953   403A      3.330565  
     404A      3.344728   405A      3.349518   406A      3.401647  
     407A      3.428828   408A      3.462052   409A      3.471094  
     410A      3.511805   411A      3.593396   412A      3.668430  
     413A      3.673022   414A      3.701615   415A      3.728581  
     416A      3.733964   417A      3.758572   418A      3.773673  
     419A      3.797917   420A      3.804308   421A      3.816142  
     422A      3.838864   423A      3.846331   424A      3.872503  
     425A      3.879311   426A      3.929834   427A      3.933868  
     428A      3.957546   429A      3.982421   430A      4.026959  
     431A      4.080031   432A      4.113511   433A      4.119019  
     434A      4.152629   435A      4.213524   436A      4.243899  
     437A      4.306855   438A      4.436065   439A      4.544614  
     440A      4.804433  

    Final Occupation by Irrep:
              A 
    DOCC [    58 ]

  @DF-RHF Final Energy:  -824.98332706218162

   => Energetics <=

    Nuclear Repulsion Energy =           1076.1045404871751998
    One-Electron Energy =               -3265.1103621709894469
    Two-Electron Energy =                1364.0224946216326316
    Total Energy =                       -824.9833270621816155

Computation Completed


Properties will be evaluated at   0.000000,   0.000000,   0.000000 [a0]

Properties computed using the SCF density matrix

  Nuclear Dipole Moment: [e a0]
     X:    -0.0053      Y:    -6.1024      Z:     0.0005

  Electronic Dipole Moment: [e a0]
     X:    -0.4487      Y:     4.1555      Z:    -0.0004

  Dipole Moment: [e a0]
     X:    -0.4540      Y:    -1.9469      Z:     0.0001     Total:     1.9992

  Dipole Moment: [D]
     X:    -1.1538      Y:    -4.9486      Z:     0.0002     Total:     5.0813


*** tstop() called on node51.bme.utexas.edu at Tue Sep 10 13:29:43 2019
Module time:
	user time   =     189.52 seconds =       3.16 minutes
	system time =       3.38 seconds =       0.06 minutes
	total time  =         51 seconds =       0.85 minutes
Total time:
	user time   =     189.52 seconds =       3.16 minutes
	system time =       3.38 seconds =       0.06 minutes
	total time  =         51 seconds =       0.85 minutes

  //>>>>>>>>>>>>>>>>>>>>>>>>>>>>>>>>>>>//
  //            Monomer A HF           //
  //<<<<<<<<<<<<<<<<<<<<<<<<<<<<<<<<<<<//


*** tstart() called on node51.bme.utexas.edu
*** at Tue Sep 10 13:29:43 2019

   => Loading Basis Set <=

    Name: AUG-CC-PVDZ
    Role: ORBITAL
    Keyword: BASIS
    atoms 1, 8, 13, 20          entry O          line   250 file /home/xy3866/psi4conda/share/psi4/basis/aug-cc-pvdz.gbs 
    atoms 2, 4-6, 14, 16, 18-19 entry C          line   178 file /home/xy3866/psi4conda/share/psi4/basis/aug-cc-pvdz.gbs 
    atoms 3, 7, 15, 17          entry N          line   214 file /home/xy3866/psi4conda/share/psi4/basis/aug-cc-pvdz.gbs 
    atoms 9-12, 21-24           entry H          line    36 file /home/xy3866/psi4conda/share/psi4/basis/aug-cc-pvdz.gbs 


         ---------------------------------------------------------
                                   SCF
               by Justin Turney, Rob Parrish, Andy Simmonett
                          and Daniel G. A. Smith
                              RHF Reference
                        4 Threads,  30517 MiB Core
         ---------------------------------------------------------

  ==> Geometry <==

    Molecular point group: c1
    Full point group: C1

    Geometry (in Angstrom), charge = 0, multiplicity = 1:

       Center              X                  Y                   Z               Mass       
    ------------   -----------------  -----------------  -----------------  -----------------
         O            3.333163897647     0.536007207649     0.000123360821    15.994914619570
         C            2.836650897647    -0.572576792351    -0.000054639179    12.000000000000
         N            3.606616897647    -1.729268792351     0.000127360821    14.003074004430
         C            3.080343897647    -2.990716792351     0.000118360821    12.000000000000
         C            1.748363897647    -3.199293792351    -0.000005639179    12.000000000000
         C            0.844008897647    -2.062874792351    -0.000179639179    12.000000000000
         N            1.480213897647    -0.822296792351    -0.000118639179    14.003074004430
         O           -0.378142102353    -2.143966792351    -0.000169639179    15.994914619570
         H            1.332384897647    -4.191751792351     0.000040360821     1.007825032230
         H            4.601114897647    -1.576895792351     0.000265360821     1.007825032230
         H            0.876609897647     0.006772207649    -0.000121639179     1.007825032230
         H            3.797388897647    -3.798333792351     0.000255360821     1.007825032230
      Gh(O)           0.378531497647     1.036900207649    -0.000191039179    15.994914619570
      Gh(C)          -0.846859502353     1.084775207649    -0.000173039179    12.000000000000
      Gh(N)          -1.488009502353     2.323726207649    -0.000007039179    14.003074004430
      Gh(C)          -2.844817502353     2.586105207649     0.000200960821    12.000000000000
      Gh(N)          -3.608580502353     1.433281207649     0.000150960821    14.003074004430
      Gh(C)          -3.077136502353     0.169702207649     0.000034960821    12.000000000000
      Gh(C)          -1.746090502353    -0.049674792351    -0.000066039179    12.000000000000
      Gh(O)          -3.320494502353     3.703777207649     0.000163960821    15.994914619570
      Gh(H)          -1.325221502353    -1.043045792351    -0.000110039179     1.007825032230
      Gh(H)          -4.604203502353     1.580184207649     0.000202960821     1.007825032230
      Gh(H)          -0.888258502353     3.137735207649    -0.000057039179     1.007825032230
      Gh(H)          -3.795548502353    -0.636424792351     0.000052960821     1.007825032230

  Running in c1 symmetry.

  Rotational constants: A =      0.04579  B =      0.00885  C =      0.00742 [cm^-1]
  Rotational constants: A =   1372.68908  B =    265.40554  C =    222.40430 [MHz]
  Nuclear repulsion =  357.068192462523598

  Charge       = 0
  Multiplicity = 1
  Electrons    = 58
  Nalpha       = 29
  Nbeta        = 29

  ==> Algorithm <==

  SCF Algorithm Type is DF.
  DIIS enabled.
  MOM disabled.
  Fractional occupation disabled.
  Guess Type is SAD.
  Energy threshold   = 1.00e-08
  Density threshold  = 1.00e-08
  Integral threshold = 0.00e+00

  ==> Primary Basis <==

  Basis Set: AUG-CC-PVDZ
    Blend: AUG-CC-PVDZ
    Number of shells: 184
    Number of basis function: 440
    Number of Cartesian functions: 472
    Spherical Harmonics?: true
    Max angular momentum: 2

   => Loading Basis Set <=

    Name: (AUG-CC-PVDZ AUX)
    Role: JKFIT
    Keyword: DF_BASIS_SCF
    atoms 1, 8, 13, 20          entry O          line   270 file /home/xy3866/psi4conda/share/psi4/basis/aug-cc-pvdz-jkfit.gbs 
    atoms 2, 4-6, 14, 16, 18-19 entry C          line   154 file /home/xy3866/psi4conda/share/psi4/basis/aug-cc-pvdz-jkfit.gbs 
    atoms 3, 7, 15, 17          entry N          line   212 file /home/xy3866/psi4conda/share/psi4/basis/aug-cc-pvdz-jkfit.gbs 
    atoms 9-12, 21-24           entry H          line    70 file /home/xy3866/psi4conda/share/psi4/basis/aug-cc-pvdz-jkfit.gbs 

  ==> Pre-Iterations <==

   -------------------------------------------------------
    Irrep   Nso     Nmo     Nalpha   Nbeta   Ndocc  Nsocc
   -------------------------------------------------------
     A        440     440       0       0       0       0
   -------------------------------------------------------
    Total     440     440      29      29      29       0
   -------------------------------------------------------

  ==> Integral Setup <==

  ==> DiskDFJK: Density-Fitted J/K Matrices <==

    J tasked:                  Yes
    K tasked:                  Yes
    wK tasked:                  No
    OpenMP threads:              4
    Integrals threads:           4
    Memory [MiB]:            22888
    Algorithm:                Core
    Integral Cache:           LOAD
    Schwarz Cutoff:          1E-12
    Fitting Condition:       1E-10

   => Auxiliary Basis Set <=

  Basis Set: (AUG-CC-PVDZ AUX)
    Blend: AUG-CC-PVDZ-JKFIT
    Number of shells: 544
    Number of basis function: 1632
    Number of Cartesian functions: 1896
    Spherical Harmonics?: true
    Max angular momentum: 3

  Minimum eigenvalue in the overlap matrix is 3.7965724600E-06.
  Using Symmetric Orthogonalization.

  SCF Guess: Superposition of Atomic Densities via on-the-fly atomic UHF.

  ==> Iterations <==

                           Total Energy        Delta E     RMS |[F,P]|

   @DF-RHF iter SAD:  -411.88327761931077   -4.11883e+02   0.00000e+00 
   @DF-RHF iter   1:  -412.28455851575552   -4.01281e-01   1.63891e-03 DIIS
   @DF-RHF iter   2:  -412.44776715426792   -1.63209e-01   1.06386e-03 DIIS
   @DF-RHF iter   3:  -412.52498373969769   -7.72166e-02   1.99404e-04 DIIS
   @DF-RHF iter   4:  -412.52924615953384   -4.26242e-03   7.90938e-05 DIIS
   @DF-RHF iter   5:  -412.53009029861425   -8.44139e-04   1.61766e-05 DIIS
   @DF-RHF iter   6:  -412.53018836656560   -9.80680e-05   8.21416e-06 DIIS
   @DF-RHF iter   7:  -412.53020589488756   -1.75283e-05   3.17902e-06 DIIS
   @DF-RHF iter   8:  -412.53020875283300   -2.85795e-06   1.10663e-06 DIIS
   @DF-RHF iter   9:  -412.53020896687491   -2.14042e-07   4.43364e-07 DIIS
   @DF-RHF iter  10:  -412.53020902079163   -5.39167e-08   1.42025e-07 DIIS
   @DF-RHF iter  11:  -412.53020902668658   -5.89495e-09   4.71319e-08 DIIS
   @DF-RHF iter  12:  -412.53020902715735   -4.70777e-10   1.48385e-08 DIIS
   @DF-RHF iter  13:  -412.53020902721630   -5.89466e-11   5.30259e-09 DIIS
  Energy and wave function converged.


  ==> Post-Iterations <==

    Orbital Energies [Eh]
    ---------------------

    Doubly Occupied:                                                      

       1A    -20.560094     2A    -20.551482     3A    -15.651711  
       4A    -15.639006     5A    -11.430225     6A    -11.388772  
       7A    -11.346865     8A    -11.261087     9A     -1.442634  
      10A     -1.400239    11A     -1.317407    12A     -1.251256  
      13A     -1.090229    14A     -0.935238    15A     -0.905634  
      16A     -0.808955    17A     -0.767449    18A     -0.717092  
      19A     -0.679517    20A     -0.669898    21A     -0.654591  
      22A     -0.614306    23A     -0.602274    24A     -0.570022  
      25A     -0.526883    26A     -0.484145    27A     -0.448670  
      28A     -0.436905    29A     -0.367042  

    Virtual:                                                              

      30A      0.018111    31A      0.030371    32A      0.039243  
      33A      0.047050    34A      0.051539    35A      0.065037  
      36A      0.065465    37A      0.070705    38A      0.075866  
      39A      0.080197    40A      0.085838    41A      0.090412  
      42A      0.104346    43A      0.108598    44A      0.114344  
      45A      0.116237    46A      0.119993    47A      0.123367  
      48A      0.125364    49A      0.131870    50A      0.133447  
      51A      0.141790    52A      0.145486    53A      0.153402  
      54A      0.153644    55A      0.159530    56A      0.161834  
      57A      0.165033    58A      0.169194    59A      0.170808  
      60A      0.177229    61A      0.181771    62A      0.193888  
      63A      0.196119    64A      0.203852    65A      0.206064  
      66A      0.206352    67A      0.213979    68A      0.225748  
      69A      0.225829    70A      0.226116    71A      0.234882  
      72A      0.240428    73A      0.247898    74A      0.253724  
      75A      0.258555    76A      0.264753    77A      0.269493  
      78A      0.272316    79A      0.277506    80A      0.284245  
      81A      0.284338    82A      0.293482    83A      0.299244  
      84A      0.306045    85A      0.310021    86A      0.316560  
      87A      0.321526    88A      0.326806    89A      0.331611  
      90A      0.334413    91A      0.335501    92A      0.344770  
      93A      0.346059    94A      0.352519    95A      0.355086  
      96A      0.362437    97A      0.369961    98A      0.375843  
      99A      0.376330   100A      0.377745   101A      0.388285  
     102A      0.395826   103A      0.409247   104A      0.410307  
     105A      0.414367   106A      0.424634   107A      0.430066  
     108A      0.439099   109A      0.439315   110A      0.453339  
     111A      0.455804   112A      0.461939   113A      0.463280  
     114A      0.471385   115A      0.471548   116A      0.484873  
     117A      0.488855   118A      0.491330   119A      0.499513  
     120A      0.506519   121A      0.508336   122A      0.514286  
     123A      0.523113   124A      0.534914   125A      0.537451  
     126A      0.541445   127A      0.544594   128A      0.553028  
     129A      0.556093   130A      0.566328   131A      0.569131  
     132A      0.577766   133A      0.578119   134A      0.581569  
     135A      0.594173   136A      0.602971   137A      0.603270  
     138A      0.616347   139A      0.625884   140A      0.631126  
     141A      0.634841   142A      0.639626   143A      0.647893  
     144A      0.651003   145A      0.655107   146A      0.658715  
     147A      0.665927   148A      0.670913   149A      0.682016  
     150A      0.698766   151A      0.702123   152A      0.705252  
     153A      0.709922   154A      0.712058   155A      0.724737  
     156A      0.736032   157A      0.741204   158A      0.745490  
     159A      0.753164   160A      0.758099   161A      0.761844  
     162A      0.766581   163A      0.773515   164A      0.786270  
     165A      0.797719   166A      0.807491   167A      0.809477  
     168A      0.818326   169A      0.829247   170A      0.831523  
     171A      0.852664   172A      0.852783   173A      0.860149  
     174A      0.864879   175A      0.871333   176A      0.881464  
     177A      0.883241   178A      0.888747   179A      0.893372  
     180A      0.898120   181A      0.912884   182A      0.912998  
     183A      0.930655   184A      0.932050   185A      0.953851  
     186A      0.955044   187A      0.961035   188A      0.971546  
     189A      0.973098   190A      0.979345   191A      0.989702  
     192A      1.000742   193A      1.006613   194A      1.014373  
     195A      1.035041   196A      1.038167   197A      1.042657  
     198A      1.045886   199A      1.059947   200A      1.065992  
     201A      1.089060   202A      1.100123   203A      1.110425  
     204A      1.112955   205A      1.115725   206A      1.120285  
     207A      1.141696   208A      1.143046   209A      1.148990  
     210A      1.167325   211A      1.178154   212A      1.179239  
     213A      1.188628   214A      1.195180   215A      1.196919  
     216A      1.198648   217A      1.220086   218A      1.231883  
     219A      1.240236   220A      1.240562   221A      1.243076  
     222A      1.254591   223A      1.266031   224A      1.274114  
     225A      1.279062   226A      1.293991   227A      1.302508  
     228A      1.308386   229A      1.320384   230A      1.321418  
     231A      1.335467   232A      1.355373   233A      1.370729  
     234A      1.376341   235A      1.376890   236A      1.404208  
     237A      1.411763   238A      1.412151   239A      1.422140  
     240A      1.439166   241A      1.439689   242A      1.450909  
     243A      1.470753   244A      1.476668   245A      1.503446  
     246A      1.507172   247A      1.509454   248A      1.521808  
     249A      1.532070   250A      1.544247   251A      1.560131  
     252A      1.560911   253A      1.573957   254A      1.574730  
     255A      1.580293   256A      1.581733   257A      1.599777  
     258A      1.612073   259A      1.650160   260A      1.658249  
     261A      1.659868   262A      1.676180   263A      1.688292  
     264A      1.695611   265A      1.705314   266A      1.713688  
     267A      1.737976   268A      1.745161   269A      1.762549  
     270A      1.773921   271A      1.802047   272A      1.824376  
     273A      1.829066   274A      1.829443   275A      1.869684  
     276A      1.871436   277A      1.905010   278A      1.921606  
     279A      1.931090   280A      1.937374   281A      1.943551  
     282A      1.959517   283A      1.993413   284A      2.010439  
     285A      2.035871   286A      2.060513   287A      2.066011  
     288A      2.102748   289A      2.118668   290A      2.119342  
     291A      2.127164   292A      2.143816   293A      2.176223  
     294A      2.215118   295A      2.218790   296A      2.235104  
     297A      2.243565   298A      2.273075   299A      2.275897  
     300A      2.280240   301A      2.306659   302A      2.320025  
     303A      2.340871   304A      2.343948   305A      2.366488  
     306A      2.386307   307A      2.392401   308A      2.420367  
     309A      2.426356   310A      2.448127   311A      2.449420  
     312A      2.463745   313A      2.467268   314A      2.496672  
     315A      2.514689   316A      2.516501   317A      2.519593  
     318A      2.528107   319A      2.552046   320A      2.567945  
     321A      2.570191   322A      2.580901   323A      2.610086  
     324A      2.623151   325A      2.640420   326A      2.671712  
     327A      2.692576   328A      2.714017   329A      2.735732  
     330A      2.750133   331A      2.751439   332A      2.769773  
     333A      2.774736   334A      2.797564   335A      2.805468  
     336A      2.821149   337A      2.834326   338A      2.845724  
     339A      2.868884   340A      2.886342   341A      2.889311  
     342A      2.908052   343A      2.912024   344A      2.937080  
     345A      2.956581   346A      2.985204   347A      2.996004  
     348A      3.027849   349A      3.100039   350A      3.105106  
     351A      3.113047   352A      3.148630   353A      3.165982  
     354A      3.206773   355A      3.220098   356A      3.243198  
     357A      3.251100   358A      3.306629   359A      3.326024  
     360A      3.341722   361A      3.351100   362A      3.384430  
     363A      3.400594   364A      3.464811   365A      3.483348  
     366A      3.494735   367A      3.511601   368A      3.537195  
     369A      3.570926   370A      3.616177   371A      3.666623  
     372A      3.670492   373A      3.685178   374A      3.733359  
     375A      3.740152   376A      3.768599   377A      3.772265  
     378A      3.792680   379A      3.805089   380A      3.819844  
     381A      3.828850   382A      3.830474   383A      3.865639  
     384A      3.887117   385A      3.910531   386A      3.943992  
     387A      3.947751   388A      3.979912   389A      3.991730  
     390A      4.049017   391A      4.061589   392A      4.116860  
     393A      4.185887   394A      4.200558   395A      4.269571  
     396A      4.316391   397A      4.381277   398A      4.439729  
     399A      4.463792   400A      4.496995   401A      4.572748  
     402A      4.672708   403A      4.708167   404A      4.772761  
     405A      4.782788   406A      4.889526   407A      4.966120  
     408A      4.987069   409A      5.000327   410A      5.039851  
     411A      5.039914   412A      5.081086   413A      5.095176  
     414A      5.183347   415A      5.257538   416A      5.341094  
     417A      5.482536   418A      5.527333   419A      5.748125  
     420A      5.809653   421A      5.868278   422A      5.973346  
     423A      6.006845   424A      6.045356   425A      6.121456  
     426A      6.146993   427A      6.231965   428A      6.339856  
     429A      6.536400   430A      6.727979   431A      7.169774  
     432A      7.426382   433A     18.245543   434A     18.806433  
     435A     18.884509   436A     19.912673   437A     25.468989  
     438A     25.481462   439A     33.526177   440A     33.545514  

    Final Occupation by Irrep:
              A 
    DOCC [    29 ]

  @DF-RHF Final Energy:  -412.53020902721630

   => Energetics <=

    Nuclear Repulsion Energy =            357.0681924625235979
    One-Electron Energy =               -1270.1575456016512362
    Two-Electron Energy =                 500.5591441119113369
    Total Energy =                       -412.5302090272163014

Computation Completed


Properties will be evaluated at   0.000000,   0.000000,   0.000000 [a0]

Properties computed using the SCF density matrix

  Nuclear Dipole Moment: [e a0]
     X:   228.4900      Y:  -176.1936      Z:    -0.0011

  Electronic Dipole Moment: [e a0]
     X:  -226.9453      Y:   175.0215      Z:     0.0012

  Dipole Moment: [e a0]
     X:     1.5447      Y:    -1.1721      Z:     0.0000     Total:     1.9390

  Dipole Moment: [D]
     X:     3.9263      Y:    -2.9791      Z:     0.0001     Total:     4.9286


*** tstop() called on node51.bme.utexas.edu at Tue Sep 10 13:30:12 2019
Module time:
	user time   =      98.29 seconds =       1.64 minutes
	system time =       2.10 seconds =       0.03 minutes
	total time  =         29 seconds =       0.48 minutes
Total time:
	user time   =     287.83 seconds =       4.80 minutes
	system time =       5.48 seconds =       0.09 minutes
	total time  =         80 seconds =       1.33 minutes

  //>>>>>>>>>>>>>>>>>>>>>>>>>>>>>>>>>>>//
  //            Monomer B HF           //
  //<<<<<<<<<<<<<<<<<<<<<<<<<<<<<<<<<<<//


*** tstart() called on node51.bme.utexas.edu
*** at Tue Sep 10 13:30:12 2019

   => Loading Basis Set <=

    Name: AUG-CC-PVDZ
    Role: ORBITAL
    Keyword: BASIS
    atoms 1, 8, 13, 20          entry O          line   250 file /home/xy3866/psi4conda/share/psi4/basis/aug-cc-pvdz.gbs 
    atoms 2, 4-6, 14, 16, 18-19 entry C          line   178 file /home/xy3866/psi4conda/share/psi4/basis/aug-cc-pvdz.gbs 
    atoms 3, 7, 15, 17          entry N          line   214 file /home/xy3866/psi4conda/share/psi4/basis/aug-cc-pvdz.gbs 
    atoms 9-12, 21-24           entry H          line    36 file /home/xy3866/psi4conda/share/psi4/basis/aug-cc-pvdz.gbs 


         ---------------------------------------------------------
                                   SCF
               by Justin Turney, Rob Parrish, Andy Simmonett
                          and Daniel G. A. Smith
                              RHF Reference
                        4 Threads,  30517 MiB Core
         ---------------------------------------------------------

  ==> Geometry <==

    Molecular point group: c1
    Full point group: C1

    Geometry (in Angstrom), charge = 0, multiplicity = 1:

       Center              X                  Y                   Z               Mass       
    ------------   -----------------  -----------------  -----------------  -----------------
      Gh(O)           3.333163897647     0.536007207649     0.000123360821    15.994914619570
      Gh(C)           2.836650897647    -0.572576792351    -0.000054639179    12.000000000000
      Gh(N)           3.606616897647    -1.729268792351     0.000127360821    14.003074004430
      Gh(C)           3.080343897647    -2.990716792351     0.000118360821    12.000000000000
      Gh(C)           1.748363897647    -3.199293792351    -0.000005639179    12.000000000000
      Gh(C)           0.844008897647    -2.062874792351    -0.000179639179    12.000000000000
      Gh(N)           1.480213897647    -0.822296792351    -0.000118639179    14.003074004430
      Gh(O)          -0.378142102353    -2.143966792351    -0.000169639179    15.994914619570
      Gh(H)           1.332384897647    -4.191751792351     0.000040360821     1.007825032230
      Gh(H)           4.601114897647    -1.576895792351     0.000265360821     1.007825032230
      Gh(H)           0.876609897647     0.006772207649    -0.000121639179     1.007825032230
      Gh(H)           3.797388897647    -3.798333792351     0.000255360821     1.007825032230
         O            0.378531497647     1.036900207649    -0.000191039179    15.994914619570
         C           -0.846859502353     1.084775207649    -0.000173039179    12.000000000000
         N           -1.488009502353     2.323726207649    -0.000007039179    14.003074004430
         C           -2.844817502353     2.586105207649     0.000200960821    12.000000000000
         N           -3.608580502353     1.433281207649     0.000150960821    14.003074004430
         C           -3.077136502353     0.169702207649     0.000034960821    12.000000000000
         C           -1.746090502353    -0.049674792351    -0.000066039179    12.000000000000
         O           -3.320494502353     3.703777207649     0.000163960821    15.994914619570
         H           -1.325221502353    -1.043045792351    -0.000110039179     1.007825032230
         H           -4.604203502353     1.580184207649     0.000202960821     1.007825032230
         H           -0.888258502353     3.137735207649    -0.000057039179     1.007825032230
         H           -3.795548502353    -0.636424792351     0.000052960821     1.007825032230

  Running in c1 symmetry.

  Rotational constants: A =      0.04579  B =      0.00885  C =      0.00742 [cm^-1]
  Rotational constants: A =   1372.68908  B =    265.40554  C =    222.40430 [MHz]
  Nuclear repulsion =  357.213504648242235

  Charge       = 0
  Multiplicity = 1
  Electrons    = 58
  Nalpha       = 29
  Nbeta        = 29

  ==> Algorithm <==

  SCF Algorithm Type is DF.
  DIIS enabled.
  MOM disabled.
  Fractional occupation disabled.
  Guess Type is SAD.
  Energy threshold   = 1.00e-08
  Density threshold  = 1.00e-08
  Integral threshold = 0.00e+00

  ==> Primary Basis <==

  Basis Set: AUG-CC-PVDZ
    Blend: AUG-CC-PVDZ
    Number of shells: 184
    Number of basis function: 440
    Number of Cartesian functions: 472
    Spherical Harmonics?: true
    Max angular momentum: 2

   => Loading Basis Set <=

    Name: (AUG-CC-PVDZ AUX)
    Role: JKFIT
    Keyword: DF_BASIS_SCF
    atoms 1, 8, 13, 20          entry O          line   270 file /home/xy3866/psi4conda/share/psi4/basis/aug-cc-pvdz-jkfit.gbs 
    atoms 2, 4-6, 14, 16, 18-19 entry C          line   154 file /home/xy3866/psi4conda/share/psi4/basis/aug-cc-pvdz-jkfit.gbs 
    atoms 3, 7, 15, 17          entry N          line   212 file /home/xy3866/psi4conda/share/psi4/basis/aug-cc-pvdz-jkfit.gbs 
    atoms 9-12, 21-24           entry H          line    70 file /home/xy3866/psi4conda/share/psi4/basis/aug-cc-pvdz-jkfit.gbs 

  ==> Pre-Iterations <==

   -------------------------------------------------------
    Irrep   Nso     Nmo     Nalpha   Nbeta   Ndocc  Nsocc
   -------------------------------------------------------
     A        440     440       0       0       0       0
   -------------------------------------------------------
    Total     440     440      29      29      29       0
   -------------------------------------------------------

  ==> Integral Setup <==

  ==> DiskDFJK: Density-Fitted J/K Matrices <==

    J tasked:                  Yes
    K tasked:                  Yes
    wK tasked:                  No
    OpenMP threads:              4
    Integrals threads:           4
    Memory [MiB]:            22888
    Algorithm:                Core
    Integral Cache:           LOAD
    Schwarz Cutoff:          1E-12
    Fitting Condition:       1E-10

   => Auxiliary Basis Set <=

  Basis Set: (AUG-CC-PVDZ AUX)
    Blend: AUG-CC-PVDZ-JKFIT
    Number of shells: 544
    Number of basis function: 1632
    Number of Cartesian functions: 1896
    Spherical Harmonics?: true
    Max angular momentum: 3

  Minimum eigenvalue in the overlap matrix is 3.7965724600E-06.
  Using Symmetric Orthogonalization.

  SCF Guess: Superposition of Atomic Densities via on-the-fly atomic UHF.

  ==> Iterations <==

                           Total Energy        Delta E     RMS |[F,P]|

   @DF-RHF iter SAD:  -411.89392307059632   -4.11894e+02   0.00000e+00 
   @DF-RHF iter   1:  -412.28582572586072   -3.91903e-01   1.63613e-03 DIIS
   @DF-RHF iter   2:  -412.44849344908812   -1.62668e-01   1.06071e-03 DIIS
   @DF-RHF iter   3:  -412.52522705910673   -7.67336e-02   1.98997e-04 DIIS
   @DF-RHF iter   4:  -412.52946779164870   -4.24073e-03   7.88860e-05 DIIS
   @DF-RHF iter   5:  -412.53030395539940   -8.36164e-04   1.61522e-05 DIIS
   @DF-RHF iter   6:  -412.53040060121089   -9.66458e-05   8.27639e-06 DIIS
   @DF-RHF iter   7:  -412.53041837468925   -1.77735e-05   3.17287e-06 DIIS
   @DF-RHF iter   8:  -412.53042124468539   -2.87000e-06   1.11318e-06 DIIS
   @DF-RHF iter   9:  -412.53042146018458   -2.15499e-07   4.44933e-07 DIIS
   @DF-RHF iter  10:  -412.53042151438547   -5.42009e-08   1.43295e-07 DIIS
   @DF-RHF iter  11:  -412.53042152031173   -5.92627e-09   4.86881e-08 DIIS
   @DF-RHF iter  12:  -412.53042152080803   -4.96300e-10   1.50123e-08 DIIS
   @DF-RHF iter  13:  -412.53042152086618   -5.81508e-11   5.26048e-09 DIIS
  Energy and wave function converged.


  ==> Post-Iterations <==

    Orbital Energies [Eh]
    ---------------------

    Doubly Occupied:                                                      

       1A    -20.559793     2A    -20.550928     3A    -15.653512  
       4A    -15.635339     5A    -11.429506     6A    -11.388356  
       7A    -11.349229     8A    -11.263441     9A     -1.442605  
      10A     -1.399441    11A     -1.318713    12A     -1.249342  
      13A     -1.093535    14A     -0.937767    15A     -0.905092  
      16A     -0.810459    17A     -0.768323    18A     -0.716654  
      19A     -0.678942    20A     -0.670135    21A     -0.656218  
      22A     -0.614464    23A     -0.603293    24A     -0.569909  
      25A     -0.526525    26A     -0.484700    27A     -0.448126  
      28A     -0.435187    29A     -0.369497  

    Virtual:                                                              

      30A      0.016227    31A      0.027492    32A      0.039920  
      33A      0.047167    34A      0.051886    35A      0.063127  
      36A      0.064934    37A      0.070584    38A      0.074282  
      39A      0.078215    40A      0.086838    41A      0.090075  
      42A      0.103043    43A      0.108309    44A      0.108339  
      45A      0.114114    46A      0.122420    47A      0.123031  
      48A      0.125061    49A      0.132164    50A      0.132709  
      51A      0.135376    52A      0.144724    53A      0.150605  
      54A      0.153811    55A      0.155830    56A      0.160480  
      57A      0.162538    58A      0.174126    59A      0.174563  
      60A      0.177931    61A      0.181545    62A      0.191369  
      63A      0.195781    64A      0.203651    65A      0.203834  
      66A      0.212652    67A      0.219836    68A      0.220216  
      69A      0.227115    70A      0.229881    71A      0.232606  
      72A      0.245422    73A      0.249461    74A      0.254895  
      75A      0.255145    76A      0.264699    77A      0.272793  
      78A      0.274503    79A      0.278625    80A      0.284230  
      81A      0.286304    82A      0.289171    83A      0.297236  
      84A      0.297749    85A      0.306362    86A      0.312448  
      87A      0.315972    88A      0.324541    89A      0.325026  
      90A      0.329352    91A      0.336371    92A      0.339127  
      93A      0.345797    94A      0.352494    95A      0.356778  
      96A      0.361289    97A      0.361517    98A      0.373899  
      99A      0.377154   100A      0.382069   101A      0.389940  
     102A      0.391132   103A      0.401706   104A      0.415879  
     105A      0.424436   106A      0.424677   107A      0.428498  
     108A      0.432962   109A      0.443160   110A      0.446256  
     111A      0.454416   112A      0.459033   113A      0.464073  
     114A      0.471013   115A      0.478832   116A      0.479063  
     117A      0.481861   118A      0.499109   119A      0.506690  
     120A      0.507650   121A      0.515157   122A      0.528286  
     123A      0.530567   124A      0.535766   125A      0.540685  
     126A      0.540700   127A      0.546792   128A      0.551798  
     129A      0.553410   130A      0.567589   131A      0.572370  
     132A      0.579653   133A      0.581631   134A      0.595487  
     135A      0.602020   136A      0.606315   137A      0.608547  
     138A      0.610415   139A      0.613330   140A      0.627493  
     141A      0.632034   142A      0.638060   143A      0.640869  
     144A      0.643155   145A      0.649013   146A      0.657946  
     147A      0.659920   148A      0.664327   149A      0.671061  
     150A      0.686521   151A      0.689385   152A      0.704028  
     153A      0.710451   154A      0.715381   155A      0.716811  
     156A      0.730527   157A      0.736805   158A      0.746220  
     159A      0.756773   160A      0.770667   161A      0.771491  
     162A      0.777440   163A      0.782389   164A      0.797790  
     165A      0.801348   166A      0.801830   167A      0.809900  
     168A      0.819797   169A      0.827702   170A      0.831242  
     171A      0.837387   172A      0.841273   173A      0.859646  
     174A      0.862702   175A      0.866103   176A      0.870841  
     177A      0.877405   178A      0.885535   179A      0.893362  
     180A      0.912114   181A      0.914630   182A      0.916965  
     183A      0.928280   184A      0.930091   185A      0.933040  
     186A      0.957968   187A      0.963646   188A      0.970539  
     189A      0.983911   190A      0.987526   191A      0.992872  
     192A      1.003557   193A      1.016666   194A      1.018926  
     195A      1.040576   196A      1.042608   197A      1.046731  
     198A      1.055035   199A      1.064025   200A      1.082852  
     201A      1.089364   202A      1.098891   203A      1.100721  
     204A      1.115129   205A      1.117056   206A      1.130292  
     207A      1.131965   208A      1.137013   209A      1.142562  
     210A      1.173055   211A      1.174472   212A      1.180065  
     213A      1.189888   214A      1.197534   215A      1.206298  
     216A      1.219925   217A      1.223847   218A      1.233743  
     219A      1.239061   220A      1.257583   221A      1.259581  
     222A      1.260023   223A      1.270736   224A      1.271054  
     225A      1.282610   226A      1.301777   227A      1.306343  
     228A      1.312587   229A      1.326066   230A      1.342826  
     231A      1.344072   232A      1.351816   233A      1.358548  
     234A      1.367623   235A      1.388412   236A      1.400480  
     237A      1.419521   238A      1.422515   239A      1.434159  
     240A      1.441264   241A      1.453475   242A      1.461139  
     243A      1.468883   244A      1.476212   245A      1.492256  
     246A      1.496090   247A      1.499737   248A      1.504048  
     249A      1.542338   250A      1.549520   251A      1.558678  
     252A      1.568584   253A      1.591066   254A      1.593126  
     255A      1.610331   256A      1.612982   257A      1.618336  
     258A      1.631689   259A      1.636854   260A      1.648573  
     261A      1.679232   262A      1.683896   263A      1.696925  
     264A      1.703742   265A      1.730268   266A      1.739436  
     267A      1.751140   268A      1.765361   269A      1.793997  
     270A      1.800173   271A      1.824805   272A      1.830385  
     273A      1.839778   274A      1.852763   275A      1.891266  
     276A      1.910105   277A      1.923978   278A      1.930691  
     279A      1.943237   280A      1.955296   281A      1.967300  
     282A      1.985008   283A      1.986194   284A      2.018196  
     285A      2.030497   286A      2.043464   287A      2.052393  
     288A      2.060399   289A      2.111183   290A      2.112651  
     291A      2.129198   292A      2.178571   293A      2.186683  
     294A      2.189338   295A      2.204017   296A      2.232590  
     297A      2.241004   298A      2.244594   299A      2.276952  
     300A      2.282717   301A      2.285652   302A      2.293672  
     303A      2.298226   304A      2.319193   305A      2.335039  
     306A      2.338478   307A      2.343625   308A      2.381370  
     309A      2.401746   310A      2.440581   311A      2.453470  
     312A      2.458008   313A      2.470274   314A      2.483688  
     315A      2.494929   316A      2.497864   317A      2.505762  
     318A      2.530531   319A      2.555970   320A      2.563246  
     321A      2.576061   322A      2.607346   323A      2.619732  
     324A      2.632684   325A      2.661867   326A      2.666824  
     327A      2.678395   328A      2.716378   329A      2.723757  
     330A      2.728381   331A      2.752031   332A      2.764919  
     333A      2.769013   334A      2.793595   335A      2.799883  
     336A      2.817043   337A      2.830057   338A      2.841028  
     339A      2.859073   340A      2.880200   341A      2.893908  
     342A      2.905550   343A      2.913405   344A      2.921717  
     345A      2.951557   346A      2.991604   347A      3.004126  
     348A      3.037057   349A      3.060042   350A      3.082038  
     351A      3.117230   352A      3.165559   353A      3.200525  
     354A      3.201315   355A      3.215036   356A      3.225358  
     357A      3.267667   358A      3.295108   359A      3.333555  
     360A      3.358785   361A      3.361818   362A      3.365637  
     363A      3.422310   364A      3.436221   365A      3.500342  
     366A      3.506121   367A      3.529977   368A      3.530720  
     369A      3.579182   370A      3.598174   371A      3.665004  
     372A      3.689216   373A      3.711509   374A      3.726746  
     375A      3.730379   376A      3.768103   377A      3.804739  
     378A      3.814974   379A      3.824467   380A      3.828616  
     381A      3.833578   382A      3.840268   383A      3.865995  
     384A      3.883547   385A      3.896428   386A      3.950285  
     387A      3.971877   388A      3.992237   389A      4.005943  
     390A      4.054066   391A      4.096260   392A      4.158392  
     393A      4.211951   394A      4.229045   395A      4.282653  
     396A      4.421895   397A      4.443727   398A      4.471491  
     399A      4.535715   400A      4.573519   401A      4.619794  
     402A      4.711989   403A      4.774964   404A      4.793067  
     405A      4.830517   406A      4.881075   407A      4.989482  
     408A      5.018607   409A      5.030822   410A      5.035591  
     411A      5.071368   412A      5.121002   413A      5.150080  
     414A      5.157224   415A      5.232737   416A      5.343107  
     417A      5.406706   418A      5.527587   419A      5.620165  
     420A      5.735380   421A      5.888003   422A      5.996636  
     423A      6.034986   424A      6.083638   425A      6.144197  
     426A      6.219984   427A      6.251672   428A      6.496197  
     429A      6.651203   430A      6.795110   431A      7.164874  
     432A      7.430239   433A     18.193160   434A     18.839065  
     435A     18.867738   436A     19.722355   437A     25.469557  
     438A     25.591938   439A     33.543734   440A     33.574690  

    Final Occupation by Irrep:
              A 
    DOCC [    29 ]

  @DF-RHF Final Energy:  -412.53042152086618

   => Energetics <=

    Nuclear Repulsion Energy =            357.2135046482422354
    One-Electron Energy =               -1270.4297853397977178
    Two-Electron Energy =                 500.6858591706893549
    Total Energy =                       -412.5304215208661844

Computation Completed


Properties will be evaluated at   0.000000,   0.000000,   0.000000 [a0]

Properties computed using the SCF density matrix

  Nuclear Dipole Moment: [e a0]
     X:  -228.4953      Y:   170.0912      Z:     0.0016

  Electronic Dipole Moment: [e a0]
     X:   226.9065      Y:  -171.3410      Z:    -0.0015

  Dipole Moment: [e a0]
     X:    -1.5888      Y:    -1.2498      Z:     0.0001     Total:     2.0214

  Dipole Moment: [D]
     X:    -4.0382      Y:    -3.1767      Z:     0.0002     Total:     5.1380


*** tstop() called on node51.bme.utexas.edu at Tue Sep 10 13:30:36 2019
Module time:
	user time   =      87.05 seconds =       1.45 minutes
	system time =       1.84 seconds =       0.03 minutes
	total time  =         24 seconds =       0.40 minutes
Total time:
	user time   =     374.91 seconds =       6.25 minutes
	system time =       7.33 seconds =       0.12 minutes
	total time  =        104 seconds =       1.73 minutes
  Constructing Basis Sets for SAPT...

   => Loading Basis Set <=

    Name: (AUG-CC-PVDZ AUX)
    Role: RIFIT
    Keyword: DF_BASIS_SAPT
    atoms 1, 8, 13, 20          entry O          line   204 file /home/xy3866/psi4conda/share/psi4/basis/aug-cc-pvdz-ri.gbs 
    atoms 2, 4-6, 14, 16, 18-19 entry C          line   112 file /home/xy3866/psi4conda/share/psi4/basis/aug-cc-pvdz-ri.gbs 
    atoms 3, 7, 15, 17          entry N          line   158 file /home/xy3866/psi4conda/share/psi4/basis/aug-cc-pvdz-ri.gbs 
    atoms 9-12, 21-24           entry H          line    30 file /home/xy3866/psi4conda/share/psi4/basis/aug-cc-pvdz-ri.gbs 


  //>>>>>>>>>>>>>>>>>>>>>>>>>>>>>>>>>>>//
  //               SAPT2+              //
  //<<<<<<<<<<<<<<<<<<<<<<<<<<<<<<<<<<<//


*** tstart() called on node51.bme.utexas.edu
*** at Tue Sep 10 13:30:37 2019

        SAPT2+  
    Ed Hohenstein
     6 June 2009

      Orbital Information
  --------------------------
    NSO        =       440
    NMO        =       440
    NRI        =      1336
    NOCC A     =        29
    NOCC B     =        29
    FOCC A     =         8
    FOCC B     =         8
    NVIR A     =       411
    NVIR B     =       411

    Estimated memory usage: 5214.9 MB

    Natural Orbital Cutoff:   1.000E-06
    Disp(T3) Truncation:            Yes
    CCD (vv|vv) Truncation:         Yes
    MBPT T2 Truncation:             Yes

    Monomer A: 210 virtual orbitals dropped
    Monomer B: 210 virtual orbitals dropped

    Elst10,r            =    -0.124258533445 [Eh]
    Exch10 (S^2)        =     0.270751588466 [Eh]
    Exch10              =     0.293329900838 [Eh]
    Ind20,r (A<-B)      =    -0.069512452520 [Eh]
    Ind20,r (B<-A)      =    -0.076008794764 [Eh]
    Ind20,r             =    -0.145521247284 [Eh]
    Exch-Ind20,r (A<-B) =     0.050046108024 [Eh]
    Exch-Ind20,r (B<-A) =     0.035459387117 [Eh]
    Exch-Ind20,r        =     0.085505495141 [Eh]
    Disp20              =    -0.050755273259 [Eh]
    Disp20 (NO)         =    -0.047630871517 [Eh]
    Exch-Disp20         =     0.011196051296 [Eh]
    Elst12,r            =    -0.001639742164 [Eh]
    Exch11              =    -0.001437953624 [Eh]
    Exch12              =     0.018906523822 [Eh]
    Ind22               =    -0.018924800358 [Eh]
    Disp21              =     0.008355663002 [Eh]
    Disp22 (SDQ)        =    -0.002272070852 [Eh]

