 Entering Gaussian System, Link 0=g09
 Input=formamide_formimidamide_dimer.com
 Output=formamide_formimidamide_dimer.out
 Initial command:
 /opt/g09gh/gaussian/g09/l1.exe /scratch/xy3866/Gau-796.inp -scrdir=/scratch/xy3866/
 Entering Link 1 = /opt/g09gh/gaussian/g09/l1.exe PID=       797.
  
 Copyright (c) 1988,1990,1992,1993,1995,1998,2003,2009, Gaussian, Inc.
                  All Rights Reserved.
  
 This is part of the Gaussian(R) 09 program.  It is based on
 the Gaussian(R) 03 system (copyright 2003, Gaussian, Inc.),
 the Gaussian(R) 98 system (copyright 1998, Gaussian, Inc.),
 the Gaussian(R) 94 system (copyright 1995, Gaussian, Inc.),
 the Gaussian 92(TM) system (copyright 1992, Gaussian, Inc.),
 the Gaussian 90(TM) system (copyright 1990, Gaussian, Inc.),
 the Gaussian 88(TM) system (copyright 1988, Gaussian, Inc.),
 the Gaussian 86(TM) system (copyright 1986, Carnegie Mellon
 University), and the Gaussian 82(TM) system (copyright 1983,
 Carnegie Mellon University). Gaussian is a federally registered
 trademark of Gaussian, Inc.
  
 This software contains proprietary and confidential information,
 including trade secrets, belonging to Gaussian, Inc.
  
 This software is provided under written license and may be
 used, copied, transmitted, or stored only in accord with that
 written license.
  
 The following legend is applicable only to US Government
 contracts under FAR:
  
                    RESTRICTED RIGHTS LEGEND
  
 Use, reproduction and disclosure by the US Government is
 subject to restrictions as set forth in subparagraphs (a)
 and (c) of the Commercial Computer Software - Restricted
 Rights clause in FAR 52.227-19.
  
 Gaussian, Inc.
 340 Quinnipiac St., Bldg. 40, Wallingford CT 06492
  
  
 ---------------------------------------------------------------
 Warning -- This program may not be used in any manner that
 competes with the business of Gaussian, Inc. or will provide
 assistance to any competitor of Gaussian, Inc.  The licensee
 of this program is prohibited from giving any competitor of
 Gaussian, Inc. access to this program.  By using this program,
 the user acknowledges that Gaussian, Inc. is engaged in the
 business of creating and licensing software in the field of
 computational chemistry and represents and warrants to the
 licensee that it is not a competitor of Gaussian, Inc. and that
 it will not use this program in any manner prohibited above.
 ---------------------------------------------------------------
  

 Cite this work as:
 Gaussian 09, Revision A.02,
 M. J. Frisch, G. W. Trucks, H. B. Schlegel, G. E. Scuseria, 
 M. A. Robb, J. R. Cheeseman, G. Scalmani, V. Barone, B. Mennucci, 
 G. A. Petersson, H. Nakatsuji, M. Caricato, X. Li, H. P. Hratchian, 
 A. F. Izmaylov, J. Bloino, G. Zheng, J. L. Sonnenberg, M. Hada, 
 M. Ehara, K. Toyota, R. Fukuda, J. Hasegawa, M. Ishida, T. Nakajima, 
 Y. Honda, O. Kitao, H. Nakai, T. Vreven, J. A. Montgomery, Jr., 
 J. E. Peralta, F. Ogliaro, M. Bearpark, J. J. Heyd, E. Brothers, 
 K. N. Kudin, V. N. Staroverov, R. Kobayashi, J. Normand, 
 K. Raghavachari, A. Rendell, J. C. Burant, S. S. Iyengar, J. Tomasi, 
 M. Cossi, N. Rega, J. M. Millam, M. Klene, J. E. Knox, J. B. Cross, 
 V. Bakken, C. Adamo, J. Jaramillo, R. Gomperts, R. E. Stratmann, 
 O. Yazyev, A. J. Austin, R. Cammi, C. Pomelli, J. W. Ochterski, 
 R. L. Martin, K. Morokuma, V. G. Zakrzewski, G. A. Voth, 
 P. Salvador, J. J. Dannenberg, S. Dapprich, A. D. Daniels, 
 O. Farkas, J. B. Foresman, J. V. Ortiz, J. Cioslowski, 
 and D. J. Fox, Gaussian, Inc., Wallingford CT, 2009.
 
 ******************************************
 Gaussian 09:  EM64L-G09RevA.02 11-Jun-2009
                 6-Sep-2019 
 ******************************************
 %NoSave
 %chk=formamide_formimidamide_dimer.chk
 %nproc=8
 Will use up to    8 processors via shared memory.
 %Mem=32GB
 ----------------------------------------------------------------------
 #p MP2/cc-pvtz counterpoise=2 IOP(5/13=1) scf=tight Symmetry=None MaxD
 isk=100GB Opt=tight
 ----------------------------------------------------------------------
 1/7=10,18=20,19=15,38=1,62=2/1,3;
 2/9=110,12=2,15=1,17=6,18=5,40=1/2;
 1/7=10,18=20,19=15,38=1,53=5172,62=2,63=100/22;
 3/5=16,6=1,11=9,16=1,25=1,30=1,71=1/1,2,3;
 4//1;
 5/5=2,13=1,32=2,38=5/2;
 8/6=4,10=1/1;
 9/15=2,16=-3/6;
 10/5=1,31=1/2;
 6/7=2,8=2,9=2,10=2/1;
 7/7=1,12=2,30=1,33=-1/1,2,3,16;
 1/7=10,18=20,19=15,53=4052,62=2,63=101/22;
 3/5=7,6=11,11=9,16=1,25=1,30=1,71=1,82=7/1,2,3;
 4//1;
 5/5=2,13=1,32=2,38=5/2;
 8/6=4,10=1/1;
 9/15=2,16=-3/6;
 10/5=1,31=1/2;
 6/7=2,8=2,9=2,10=2/1;
 7/7=1,12=2,30=1,33=-1/1,2,3,16;
 1/7=10,18=20,19=15,53=3042,62=2,63=102/22;
 3/5=7,6=11,11=9,16=1,25=1,30=1,71=1,82=7/1,2,3;
 4//1;
 5/5=2,13=1,32=2,38=5/2;
 8/6=4,10=1/1;
 9/15=2,16=-3/6;
 10/5=1,31=1/2;
 6/7=2,8=2,9=2,10=2/1;
 7/7=1,12=2,30=1,33=-1/1,2,3,16;
 1/7=10,18=20,19=15,53=2032,62=2,63=103/22;
 3/5=7,6=11,11=9,16=1,25=1,30=1,71=1,82=7/1,2,3;
 4//1;
 5/5=2,13=1,32=2,38=5/2;
 8/6=4,10=1/1;
 9/15=2,16=-3/6;
 10/5=1,31=1/2;
 6/7=2,8=2,9=2,10=2/1;
 7/7=1,12=2,30=1,33=-1/1,2,3,16;
 1/7=10,18=20,19=15,53=1022,62=2,63=104/22;
 3/5=7,6=11,11=9,16=1,25=1,30=1,71=1,82=7/1,2,3;
 4//1;
 5/5=2,13=1,32=2,38=5/2;
 8/6=4,10=1/1;
 9/15=2,16=-3/6;
 10/5=1,31=1/2;
 6/7=2,8=2,9=2,10=2/1;
 7/7=1,12=2,30=1,33=-1/1,2,3,16;
 1/7=10,18=20,19=15,53=5015,62=2,63=105/22;
 7/9=1,44=-1/16;
 1/7=10,18=20,19=15,62=2,63=100/3(2);
 2/9=110,15=1/2;
 99//99;
 2/9=110,15=1/2;
 1/7=10,18=20,19=15,53=5173,62=2,63=100/22;
 3/5=7,6=11,11=9,16=1,25=1,30=1,71=1,82=7/1,2,3;
 4/5=5,16=3/1;
 5/5=2,13=1,32=2,38=5/2;
 8/6=4,10=1/1;
 9/15=2,16=-3/6;
 10/5=1,31=1/2;
 7/7=1,12=2,30=1,33=-1/1,2,3,16;
 1/7=10,18=20,19=15,53=4053,62=2,63=101/22;
 3/5=7,6=11,11=9,16=1,25=1,30=1,71=1,82=7/1,2,3;
 4/5=5,16=3/1;
 5/5=2,13=1,32=2,38=5/2;
 8/6=4,10=1/1;
 9/15=2,16=-3/6;
 10/5=1,31=1/2;
 7/7=1,12=2,30=1,33=-1/1,2,3,16;
 1/7=10,18=20,19=15,53=3043,62=2,63=102/22;
 3/5=7,6=11,11=9,16=1,25=1,30=1,71=1,82=7/1,2,3;
 4/5=5,16=3/1;
 5/5=2,13=1,32=2,38=5/2;
 8/6=4,10=1/1;
 9/15=2,16=-3/6;
 10/5=1,31=1/2;
 7/7=1,12=2,30=1,33=-1/1,2,3,16;
 1/7=10,18=20,19=15,53=2033,62=2,63=103/22;
 3/5=7,6=11,11=9,16=1,25=1,30=1,71=1,82=7/1,2,3;
 4/5=5,16=3/1;
 5/5=2,13=1,32=2,38=5/2;
 8/6=4,10=1/1;
 9/15=2,16=-3/6;
 10/5=1,31=1/2;
 7/7=1,12=2,30=1,33=-1/1,2,3,16;
 1/7=10,18=20,19=15,53=1024,62=2,63=104/22;
 3/5=7,6=11,11=9,16=1,25=1,30=1,71=1,82=7/1,2,3;
 4/5=5,16=3/1;
 5/5=2,13=1,32=2,38=5/2;
 8/6=4,10=1/1;
 9/15=2,16=-3/6;
 10/5=1,31=1/2;
 7/7=1,12=2,30=1,33=-1/1,2,3,16;
 1/7=10,18=20,19=15,53=5015,62=2,63=105/22;
 7/9=1,44=-1/16;
 1/7=10,18=20,19=15,62=2,63=100/3(-43);
 2/9=110,15=1/2;
 6/7=2,8=2,9=2,10=2/1;
 99//99;
 Leave Link    1 at Fri Sep  6 16:58:27 2019, MaxMem= 4294967296 cpu:       0.7
 (Enter /opt/g09gh/gaussian/g09/l101.exe)
 ---------
 Opt=tight
 ---------
 Symbolic Z-matrix:
 Charge =  0 Multiplicity = 1 in supermolecule
 Charge =  0 Multiplicity = 1 in fragment  1.
 Charge =  0 Multiplicity = 1 in fragment  2.
 C(Fragment=1)        -1.68225   0.20008   0. 
 H(Fragment=1)        -2.79851   0.32732   0. 
 O(Fragment=1)        -1.03338   1.25686   0. 
 N(Fragment=1)        -1.42372  -1.11002   0. 
 H(Fragment=1)        -0.41476  -1.44699   0. 
 H(Fragment=1)        -2.24808  -1.69769   0. 
 C(Fragment=2)         1.69588  -0.18499   0. 
 H(Fragment=2)         2.80117  -0.31098   0. 
 N(Fragment=2)         1.05128  -1.32039   0. 
 H(Fragment=2)         1.74163  -2.07112   0. 
 N(Fragment=2)         1.41625   1.1265    0. 
 H(Fragment=2)         0.43768   1.4467    0. 
 H(Fragment=2)         2.21582   1.74279   0. 
 
 NAtoms=     13 NQM=     13 NQMF=      0 NMic=      0 NMicF=      0 NTot=     13.
                    Isotopes and Nuclear Properties:
 (Nuclear quadrupole moments (NQMom) in fm**2, nuclear magnetic moments (NMagM)
  in nuclear magnetons)

  Atom         1           2           3           4           5           6           7           8           9          10
 IAtWgt=          12           1          16          14           1           1          12           1          14           1
 AtmWgt=  12.0000000   1.0078250  15.9949146  14.0030740   1.0078250   1.0078250  12.0000000   1.0078250  14.0030740   1.0078250
 NucSpn=           0           1           0           2           1           1           0           1           2           1
 AtZEff=   0.0000000   0.0000000   0.0000000   0.0000000   0.0000000   0.0000000   0.0000000   0.0000000   0.0000000   0.0000000
 NQMom=    0.0000000   0.0000000   0.0000000   2.0440000   0.0000000   0.0000000   0.0000000   0.0000000   2.0440000   0.0000000
 NMagM=    0.0000000   2.7928460   0.0000000   0.4037610   2.7928460   2.7928460   0.0000000   2.7928460   0.4037610   2.7928460

  Atom        11          12          13
 IAtWgt=          14           1           1
 AtmWgt=  14.0030740   1.0078250   1.0078250
 NucSpn=           2           1           1
 AtZEff=   0.0000000   0.0000000   0.0000000
 NQMom=    2.0440000   0.0000000   0.0000000
 NMagM=    0.4037610   2.7928460   2.7928460
 Leave Link  101 at Fri Sep  6 16:58:27 2019, MaxMem= 4294967296 cpu:       0.9
 (Enter /opt/g09gh/gaussian/g09/l103.exe)

 GradGradGradGradGradGradGradGradGradGradGradGradGradGradGradGradGradGrad
 Berny optimization.
 Initialization pass.
                           ----------------------------
                           !    Initial Parameters    !
                           ! (Angstroms and Degrees)  !
 --------------------------                            --------------------------
 ! Name  Definition              Value          Derivative Info.                !
 --------------------------------------------------------------------------------
 ! R1    R(1,2)                  1.1235         estimate D2E/DX2                !
 ! R2    R(1,3)                  1.2401         estimate D2E/DX2                !
 ! R3    R(1,4)                  1.3354         estimate D2E/DX2                !
 ! R4    R(3,12)                 1.4833         estimate D2E/DX2                !
 ! R5    R(4,5)                  1.0637         estimate D2E/DX2                !
 ! R6    R(4,6)                  1.0124         estimate D2E/DX2                !
 ! R7    R(5,9)                  1.4715         estimate D2E/DX2                !
 ! R8    R(7,8)                  1.1125         estimate D2E/DX2                !
 ! R9    R(7,9)                  1.3056         estimate D2E/DX2                !
 ! R10   R(7,11)                 1.341          estimate D2E/DX2                !
 ! R11   R(9,10)                 1.0199         estimate D2E/DX2                !
 ! R12   R(11,12)                1.0296         estimate D2E/DX2                !
 ! R13   R(11,13)                1.0095         estimate D2E/DX2                !
 ! A1    A(2,1,3)              115.0472         estimate D2E/DX2                !
 ! A2    A(2,1,4)              107.666          estimate D2E/DX2                !
 ! A3    A(3,1,4)              137.2868         estimate D2E/DX2                !
 ! A4    A(1,3,12)             128.9037         estimate D2E/DX2                !
 ! A5    A(1,4,5)              119.6314         estimate D2E/DX2                !
 ! A6    A(1,4,6)              114.3211         estimate D2E/DX2                !
 ! A7    A(5,4,6)              126.0475         estimate D2E/DX2                !
 ! A8    A(4,5,9)              156.5959         estimate D2E/DX2                !
 ! A9    A(8,7,9)              113.0819         estimate D2E/DX2                !
 ! A10   A(8,7,11)             108.539          estimate D2E/DX2                !
 ! A11   A(9,7,11)             138.3791         estimate D2E/DX2                !
 ! A12   A(5,9,7)              124.5206         estimate D2E/DX2                !
 ! A13   A(5,9,10)             127.6652         estimate D2E/DX2                !
 ! A14   A(7,9,10)             107.8142         estimate D2E/DX2                !
 ! A15   A(7,11,12)            120.1548         estimate D2E/DX2                !
 ! A16   A(7,11,13)            115.5882         estimate D2E/DX2                !
 ! A17   A(12,11,13)           124.257          estimate D2E/DX2                !
 ! A18   A(3,12,11)            154.5277         estimate D2E/DX2                !
 ! D1    D(2,1,3,12)           180.0            estimate D2E/DX2                !
 ! D2    D(4,1,3,12)             0.0            estimate D2E/DX2                !
 ! D3    D(2,1,4,5)            180.0            estimate D2E/DX2                !
 ! D4    D(2,1,4,6)              0.0            estimate D2E/DX2                !
 ! D5    D(3,1,4,5)              0.0            estimate D2E/DX2                !
 ! D6    D(3,1,4,6)            180.0            estimate D2E/DX2                !
 ! D7    D(1,3,12,11)            0.0            estimate D2E/DX2                !
 ! D8    D(1,4,5,9)              0.0            estimate D2E/DX2                !
 ! D9    D(6,4,5,9)            180.0            estimate D2E/DX2                !
 ! D10   D(4,5,9,7)              0.0            estimate D2E/DX2                !
 ! D11   D(4,5,9,10)           180.0            estimate D2E/DX2                !
 ! D12   D(8,7,9,5)            180.0            estimate D2E/DX2                !
 ! D13   D(8,7,9,10)             0.0            estimate D2E/DX2                !
 ! D14   D(11,7,9,5)             0.0            estimate D2E/DX2                !
 ! D15   D(11,7,9,10)          180.0            estimate D2E/DX2                !
 ! D16   D(8,7,11,12)          180.0            estimate D2E/DX2                !
 ! D17   D(8,7,11,13)            0.0            estimate D2E/DX2                !
 ! D18   D(9,7,11,12)            0.0            estimate D2E/DX2                !
 ! D19   D(9,7,11,13)          180.0            estimate D2E/DX2                !
 ! D20   D(7,11,12,3)            0.0            estimate D2E/DX2                !
 ! D21   D(13,11,12,3)         180.0            estimate D2E/DX2                !
 --------------------------------------------------------------------------------
 Trust Radius=3.00D-01 FncErr=1.00D-07 GrdErr=1.00D-07
 Number of steps in this run=  62 maximum allowed number of steps= 100.
 GradGradGradGradGradGradGradGradGradGradGradGradGradGradGradGradGradGrad

 Leave Link  103 at Fri Sep  6 16:58:27 2019, MaxMem= 4294967296 cpu:       0.1
 (Enter /opt/g09gh/gaussian/g09/l202.exe)
                          Input orientation:                          
 ---------------------------------------------------------------------
 Center     Atomic      Atomic             Coordinates (Angstroms)
 Number     Number       Type             X           Y           Z
 ---------------------------------------------------------------------
      1          6           0       -1.682245    0.200077    0.000000
      2          1           0       -2.798510    0.327317    0.000000
      3          8           0       -1.033377    1.256858    0.000000
      4          7           0       -1.423716   -1.110023    0.000000
      5          1           0       -0.414760   -1.446994    0.000000
      6          1           0       -2.248079   -1.697693    0.000000
      7          6           0        1.695880   -0.184986    0.000000
      8          1           0        2.801174   -0.310976    0.000000
      9          7           0        1.051279   -1.320388    0.000000
     10          1           0        1.741632   -2.071117    0.000000
     11          7           0        1.416252    1.126503    0.000000
     12          1           0        0.437682    1.446703    0.000000
     13          1           0        2.215821    1.742794    0.000000
 ---------------------------------------------------------------------
                    Distance matrix (angstroms):
                    1          2          3          4          5
     1  C    0.000000
     2  H    1.123494   0.000000
     3  O    1.240087   1.994929   0.000000
     4  N    1.335365   1.988972   2.398852   0.000000
     5  H    2.078307   2.971606   2.773716   1.063739   0.000000
     6  H    1.980328   2.098485   3.194507   1.012389   1.850381
     7  C    3.400001   4.523494   3.086707   3.253855   2.459160
     8  H    4.512452   5.635946   4.142690   4.299787   3.410685
     9  N    3.127934   4.187578   3.314813   2.483919   1.471496
    10  H    4.108681   5.134723   4.333138   3.308040   2.244896
    11  N    3.234030   4.289862   2.453094   3.614895   3.158401
    12  H    2.459302   3.424320   1.483258   3.162538   3.016644
    13  H    4.192242   5.210287   3.285334   4.624369   4.134574
                    6          7          8          9         10
     6  H    0.000000
     7  C    4.224109   0.000000
     8  H    5.236215   1.112452   0.000000
     9  N    3.320862   1.305621   2.020160   0.000000
    10  H    4.007149   1.886685   2.054440   1.019892   0.000000
    11  N    4.626382   1.340969   1.996085   2.473961   3.214132
    12  H    4.135280   2.060454   2.945425   2.834307   3.751712
    13  H    5.635899   1.996666   2.135558   3.277078   3.843275
                   11         12         13
    11  N    0.000000
    12  H    1.029625   0.000000
    13  H    1.009517   1.802622   0.000000
 Symmetry turned off by external request.
 Stoichiometry    C2H7N3O
 Framework group  CS[SG(C2H7N3O)]
 Deg. of freedom    23
 Full point group                 CS      NOp   2
 Rotational constants (GHZ):      5.0382148      2.7059660      1.7604493
 Leave Link  202 at Fri Sep  6 16:58:28 2019, MaxMem= 4294967296 cpu:       0.1
 (Enter /opt/g09gh/gaussian/g09/l122.exe)
 Leave Link  122 at Fri Sep  6 16:58:28 2019, MaxMem= 4294967296 cpu:       0.0
 (Enter /opt/g09gh/gaussian/g09/l301.exe)
 Standard basis: CC-pVTZ (5D, 7F)
 Ernie: Thresh=  0.10000D-02 Tol=  0.10000D-05 Strict=F.
 Ernie:  18 primitive shells out of 212 were deleted.
 Integral buffers will be    131072 words long.
 Raffenetti 1 integral format.
 Two-electron integral symmetry is turned off.
   278 basis functions,   431 primitive gaussians,   315 cartesian basis functions
    24 alpha electrons       24 beta electrons
       nuclear repulsion energy       239.9058740352 Hartrees.
 IExCor=    0 DFT=F Ex=HF Corr=None ExCW=0 ScaHFX=  1.000000
 ScaDFX=  1.000000  1.000000  1.000000  1.000000 ScalE2=  1.000000  1.000000
 IRadAn=      0 IRanWt=     -1 IRanGd=            0 ICorTp=0
 NAtoms=   13 NActive=   13 NUniq=   13 SFac= 7.50D-01 NAtFMM=   80 NAOKFM=F Big=F
 Leave Link  301 at Fri Sep  6 16:58:28 2019, MaxMem= 4294967296 cpu:       0.7
 (Enter /opt/g09gh/gaussian/g09/l302.exe)
 NPDir=0 NMtPBC=     1 NCelOv=     1 NCel=       1 NClECP=     1 NCelD=      1
         NCelK=      1 NCelE2=     1 NClLst=     1 CellRange=     0.0.
 One-electron integrals computed using PRISM.
 NBasis=   278 RedAO= T  NBF=   278
 NBsUse=   278 1.00D-06 NBFU=   278
 Leave Link  302 at Fri Sep  6 16:58:28 2019, MaxMem= 4294967296 cpu:       4.5
 (Enter /opt/g09gh/gaussian/g09/l303.exe)
 DipDrv:  MaxL=1.
 Leave Link  303 at Fri Sep  6 16:58:29 2019, MaxMem= 4294967296 cpu:       0.7
 (Enter /opt/g09gh/gaussian/g09/l401.exe)
 Harris functional with IExCor=  205 diagonalized for initial guess.
 ExpMin= 1.03D-01 ExpMax= 1.53D+04 ExpMxC= 5.22D+02 IAcc=1 IRadAn=         1 AccDes= 0.00D+00
 HarFok:  IExCor=  205 AccDes= 0.00D+00 IRadAn=         1 IDoV= 1
 ScaDFX=  1.000000  1.000000  1.000000  1.000000
 FoFCou: FMM=F IPFlag=           0 FMFlag=      100000 FMFlg1=           0
         NFxFlg=           0 DoJE=T BraDBF=F KetDBF=T FulRan=T
         Omega=  0.000000  0.000000  1.000000  0.000000  0.000000 ICntrl=     500 IOpCl=  0
         NMat0=    1 NMatS0=    1 NMatT0=    0 NMatD0=    1 NMtDS0=    0 NMtDT0=    0
         I1Cent=           4 NGrid=           0.
 Symmetry not used in FoFCou.
 Harris En= -318.554774592348    
 Leave Link  401 at Fri Sep  6 16:58:29 2019, MaxMem= 4294967296 cpu:       6.4
 (Enter /opt/g09gh/gaussian/g09/l502.exe)
 Closed shell SCF:
 Requested convergence on RMS density matrix=1.00D-08 within  64 cycles.
 Requested convergence on MAX density matrix=1.00D-06.
 Requested convergence on             energy=1.00D-06.
 No special actions if energy rises.
 Using DIIS extrapolation, IDIIS=  1040.
 Two-electron integral symmetry not used.
 Keep R1 ints in memory in canonical form, NReq=1254636088.
 IEnd=      307649 IEndB=      307649 NGot=  4294967296 MDV=  3056212049
 LenX=  3056212049 LenY=  3056112383
 Symmetry not used in FoFDir.
 MinBra= 0 MaxBra= 3 Meth= 1.
 IRaf=       0 NMat=   1 IRICut=       1 DoRegI=T DoRafI=F ISym2E= 0 JSym2E=0.

 Cycle   1  Pass 1  IDiag  1:
 E= -317.795177919677    
 DIIS: error= 3.98D-02 at cycle   1 NSaved=   1.
 NSaved= 1 IEnMin= 1 EnMin= -317.795177919677     IErMin= 1 ErrMin= 3.98D-02
 ErrMax= 3.98D-02 EMaxC= 1.00D-01 BMatC= 6.74D-01 BMatP= 6.74D-01
 IDIUse=3 WtCom= 6.02D-01 WtEn= 3.98D-01
 Coeff-Com:  0.100D+01
 Coeff-En:   0.100D+01
 Coeff:      0.100D+01
 Gap=     0.564 Goal=   None    Shift=    0.000
 GapD=    0.564 DampG=2.000 DampE=0.500 DampFc=1.0000 IDamp=-1.
 RMSDP=1.96D-03 MaxDP=9.61D-02              OVMax= 1.29D-01

 Cycle   2  Pass 1  IDiag  1:
 E= -318.042743804546     Delta-E=       -0.247565884869 Rises=F Damp=F
 DIIS: error= 1.44D-02 at cycle   2 NSaved=   2.
 NSaved= 2 IEnMin= 2 EnMin= -318.042743804546     IErMin= 2 ErrMin= 1.44D-02
 ErrMax= 1.44D-02 EMaxC= 1.00D-01 BMatC= 8.63D-02 BMatP= 6.74D-01
 IDIUse=3 WtCom= 8.56D-01 WtEn= 1.44D-01
 Coeff-Com:  0.198D+00 0.802D+00
 Coeff-En:   0.000D+00 0.100D+01
 Coeff:      0.169D+00 0.831D+00
 Gap=     0.527 Goal=   None    Shift=    0.000
 RMSDP=9.71D-04 MaxDP=5.67D-02 DE=-2.48D-01 OVMax= 5.37D-02

 Cycle   3  Pass 1  IDiag  1:
 E= -318.099241244499     Delta-E=       -0.056497439954 Rises=F Damp=F
 DIIS: error= 6.22D-03 at cycle   3 NSaved=   3.
 NSaved= 3 IEnMin= 3 EnMin= -318.099241244499     IErMin= 3 ErrMin= 6.22D-03
 ErrMax= 6.22D-03 EMaxC= 1.00D-01 BMatC= 8.96D-03 BMatP= 8.63D-02
 IDIUse=3 WtCom= 9.38D-01 WtEn= 6.22D-02
 Coeff-Com: -0.247D-01 0.208D+00 0.817D+00
 Coeff-En:   0.000D+00 0.000D+00 0.100D+01
 Coeff:     -0.232D-01 0.195D+00 0.828D+00
 Gap=     0.496 Goal=   None    Shift=    0.000
 RMSDP=1.79D-04 MaxDP=6.53D-03 DE=-5.65D-02 OVMax= 1.52D-02

 Cycle   4  Pass 1  IDiag  1:
 E= -318.105251081395     Delta-E=       -0.006009836896 Rises=F Damp=F
 DIIS: error= 1.16D-03 at cycle   4 NSaved=   4.
 NSaved= 4 IEnMin= 4 EnMin= -318.105251081395     IErMin= 4 ErrMin= 1.16D-03
 ErrMax= 1.16D-03 EMaxC= 1.00D-01 BMatC= 2.89D-04 BMatP= 8.96D-03
 IDIUse=3 WtCom= 9.88D-01 WtEn= 1.16D-02
 Coeff-Com: -0.953D-02 0.403D-01 0.224D+00 0.745D+00
 Coeff-En:   0.000D+00 0.000D+00 0.000D+00 0.100D+01
 Coeff:     -0.942D-02 0.398D-01 0.221D+00 0.748D+00
 Gap=     0.496 Goal=   None    Shift=    0.000
 RMSDP=4.85D-05 MaxDP=1.90D-03 DE=-6.01D-03 OVMax= 4.94D-03

 Cycle   5  Pass 1  IDiag  1:
 E= -318.105526627351     Delta-E=       -0.000275545956 Rises=F Damp=F
 DIIS: error= 3.74D-04 at cycle   5 NSaved=   5.
 NSaved= 5 IEnMin= 5 EnMin= -318.105526627351     IErMin= 5 ErrMin= 3.74D-04
 ErrMax= 3.74D-04 EMaxC= 1.00D-01 BMatC= 3.49D-05 BMatP= 2.89D-04
 IDIUse=3 WtCom= 9.96D-01 WtEn= 3.74D-03
 Coeff-Com:  0.235D-02-0.221D-01-0.961D-01 0.866D-01 0.103D+01
 Coeff-En:   0.000D+00 0.000D+00 0.000D+00 0.000D+00 0.100D+01
 Coeff:      0.234D-02-0.220D-01-0.958D-01 0.862D-01 0.103D+01
 Gap=     0.497 Goal=   None    Shift=    0.000
 RMSDP=2.40D-05 MaxDP=7.58D-04 DE=-2.76D-04 OVMax= 2.62D-03

 Cycle   6  Pass 1  IDiag  1:
 E= -318.105582607373     Delta-E=       -0.000055980022 Rises=F Damp=F
 DIIS: error= 8.53D-05 at cycle   6 NSaved=   6.
 NSaved= 6 IEnMin= 6 EnMin= -318.105582607373     IErMin= 6 ErrMin= 8.53D-05
 ErrMax= 8.53D-05 EMaxC= 1.00D-01 BMatC= 3.74D-06 BMatP= 3.49D-05
 IDIUse=1 WtCom= 1.00D+00 WtEn= 0.00D+00
 Coeff-Com:  0.140D-02-0.843D-02-0.418D-01-0.622D-01 0.167D+00 0.944D+00
 Coeff:      0.140D-02-0.843D-02-0.418D-01-0.622D-01 0.167D+00 0.944D+00
 Gap=     0.497 Goal=   None    Shift=    0.000
 RMSDP=9.03D-06 MaxDP=2.80D-04 DE=-5.60D-05 OVMax= 7.59D-04

 Cycle   7  Pass 1  IDiag  1:
 E= -318.105589841608     Delta-E=       -0.000007234235 Rises=F Damp=F
 DIIS: error= 5.21D-05 at cycle   7 NSaved=   7.
 NSaved= 7 IEnMin= 7 EnMin= -318.105589841608     IErMin= 7 ErrMin= 5.21D-05
 ErrMax= 5.21D-05 EMaxC= 1.00D-01 BMatC= 4.00D-07 BMatP= 3.74D-06
 IDIUse=1 WtCom= 1.00D+00 WtEn= 0.00D+00
 Coeff-Com: -0.177D-03 0.238D-02 0.103D-01-0.175D-01-0.110D+00 0.271D-01
 Coeff-Com:  0.109D+01
 Coeff:     -0.177D-03 0.238D-02 0.103D-01-0.175D-01-0.110D+00 0.271D-01
 Coeff:      0.109D+01
 Gap=     0.497 Goal=   None    Shift=    0.000
 RMSDP=3.48D-06 MaxDP=1.49D-04 DE=-7.23D-06 OVMax= 5.51D-04

 Cycle   8  Pass 1  IDiag  1:
 E= -318.105591049862     Delta-E=       -0.000001208254 Rises=F Damp=F
 DIIS: error= 2.02D-05 at cycle   8 NSaved=   8.
 NSaved= 8 IEnMin= 8 EnMin= -318.105591049862     IErMin= 8 ErrMin= 2.02D-05
 ErrMax= 2.02D-05 EMaxC= 1.00D-01 BMatC= 6.80D-08 BMatP= 4.00D-07
 IDIUse=1 WtCom= 1.00D+00 WtEn= 0.00D+00
 Coeff-Com: -0.198D-03 0.137D-02 0.635D-02 0.404D-02-0.236D-01-0.137D+00
 Coeff-Com:  0.114D+00 0.104D+01
 Coeff:     -0.198D-03 0.137D-02 0.635D-02 0.404D-02-0.236D-01-0.137D+00
 Coeff:      0.114D+00 0.104D+01
 Gap=     0.497 Goal=   None    Shift=    0.000
 RMSDP=1.40D-06 MaxDP=5.28D-05 DE=-1.21D-06 OVMax= 2.21D-04

 Cycle   9  Pass 1  IDiag  1:
 E= -318.105591218858     Delta-E=       -0.000000168996 Rises=F Damp=F
 DIIS: error= 7.91D-06 at cycle   9 NSaved=   9.
 NSaved= 9 IEnMin= 9 EnMin= -318.105591218858     IErMin= 9 ErrMin= 7.91D-06
 ErrMax= 7.91D-06 EMaxC= 1.00D-01 BMatC= 8.74D-09 BMatP= 6.80D-08
 IDIUse=1 WtCom= 1.00D+00 WtEn= 0.00D+00
 Coeff-Com: -0.112D-04-0.319D-04-0.237D-03 0.120D-02 0.105D-01-0.247D-01
 Coeff-Com: -0.983D-01 0.110D+00 0.100D+01
 Coeff:     -0.112D-04-0.319D-04-0.237D-03 0.120D-02 0.105D-01-0.247D-01
 Coeff:     -0.983D-01 0.110D+00 0.100D+01
 Gap=     0.497 Goal=   None    Shift=    0.000
 RMSDP=4.69D-07 MaxDP=1.81D-05 DE=-1.69D-07 OVMax= 7.90D-05

 Cycle  10  Pass 1  IDiag  1:
 E= -318.105591240856     Delta-E=       -0.000000021998 Rises=F Damp=F
 DIIS: error= 3.35D-06 at cycle  10 NSaved=  10.
 NSaved=10 IEnMin=10 EnMin= -318.105591240856     IErMin=10 ErrMin= 3.35D-06
 ErrMax= 3.35D-06 EMaxC= 1.00D-01 BMatC= 1.58D-09 BMatP= 8.74D-09
 IDIUse=1 WtCom= 1.00D+00 WtEn= 0.00D+00
 Coeff-Com:  0.318D-04-0.239D-03-0.110D-02-0.952D-03 0.699D-02 0.183D-01
 Coeff-Com: -0.278D-01-0.153D+00 0.117D+00 0.104D+01
 Coeff:      0.318D-04-0.239D-03-0.110D-02-0.952D-03 0.699D-02 0.183D-01
 Coeff:     -0.278D-01-0.153D+00 0.117D+00 0.104D+01
 Gap=     0.497 Goal=   None    Shift=    0.000
 RMSDP=2.14D-07 MaxDP=7.74D-06 DE=-2.20D-08 OVMax= 3.69D-05

 Cycle  11  Pass 1  IDiag  1:
 E= -318.105591245226     Delta-E=       -0.000000004370 Rises=F Damp=F
 DIIS: error= 1.22D-06 at cycle  11 NSaved=  11.
 NSaved=11 IEnMin=11 EnMin= -318.105591245226     IErMin=11 ErrMin= 1.22D-06
 ErrMax= 1.22D-06 EMaxC= 1.00D-01 BMatC= 2.80D-10 BMatP= 1.58D-09
 IDIUse=1 WtCom= 1.00D+00 WtEn= 0.00D+00
 Coeff-Com:  0.766D-06 0.119D-04 0.123D-03-0.454D-03-0.206D-02 0.345D-02
 Coeff-Com:  0.219D-01-0.159D-01-0.226D+00-0.178D-01 0.124D+01
 Coeff:      0.766D-06 0.119D-04 0.123D-03-0.454D-03-0.206D-02 0.345D-02
 Coeff:      0.219D-01-0.159D-01-0.226D+00-0.178D-01 0.124D+01
 Gap=     0.497 Goal=   None    Shift=    0.000
 RMSDP=1.27D-07 MaxDP=4.18D-06 DE=-4.37D-09 OVMax= 1.63D-05

 Cycle  12  Pass 1  IDiag  1:
 E= -318.105591246068     Delta-E=       -0.000000000843 Rises=F Damp=F
 DIIS: error= 1.87D-07 at cycle  12 NSaved=  12.
 NSaved=12 IEnMin=12 EnMin= -318.105591246068     IErMin=12 ErrMin= 1.87D-07
 ErrMax= 1.87D-07 EMaxC= 1.00D-01 BMatC= 1.27D-11 BMatP= 2.80D-10
 IDIUse=1 WtCom= 1.00D+00 WtEn= 0.00D+00
 Coeff-Com: -0.287D-05 0.216D-04 0.103D-03 0.748D-04-0.494D-03-0.194D-02
 Coeff-Com:  0.108D-02 0.176D-01-0.293D-03-0.965D-01-0.408D-01 0.112D+01
 Coeff:     -0.287D-05 0.216D-04 0.103D-03 0.748D-04-0.494D-03-0.194D-02
 Coeff:      0.108D-02 0.176D-01-0.293D-03-0.965D-01-0.408D-01 0.112D+01
 Gap=     0.497 Goal=   None    Shift=    0.000
 RMSDP=2.50D-08 MaxDP=9.76D-07 DE=-8.43D-10 OVMax= 2.70D-06

 Cycle  13  Pass 1  IDiag  1:
 E= -318.105591246102     Delta-E=       -0.000000000034 Rises=F Damp=F
 DIIS: error= 6.27D-08 at cycle  13 NSaved=  13.
 NSaved=13 IEnMin=13 EnMin= -318.105591246102     IErMin=13 ErrMin= 6.27D-08
 ErrMax= 6.27D-08 EMaxC= 1.00D-01 BMatC= 1.06D-12 BMatP= 1.27D-11
 IDIUse=1 WtCom= 1.00D+00 WtEn= 0.00D+00
 Coeff-Com: -0.540D-06 0.257D-05 0.711D-05 0.399D-04 0.942D-04-0.519D-03
 Coeff-Com: -0.175D-02 0.413D-02 0.183D-01-0.151D-01-0.104D+00 0.162D+00
 Coeff-Com:  0.937D+00
 Coeff:     -0.540D-06 0.257D-05 0.711D-05 0.399D-04 0.942D-04-0.519D-03
 Coeff:     -0.175D-02 0.413D-02 0.183D-01-0.151D-01-0.104D+00 0.162D+00
 Coeff:      0.937D+00
 Gap=     0.497 Goal=   None    Shift=    0.000
 RMSDP=5.71D-09 MaxDP=1.86D-07 DE=-3.38D-11 OVMax= 4.68D-07

 SCF Done:  E(RHF) =  -318.105591246     A.U. after   13 cycles
             Convg  =    0.5705D-08             -V/T =  2.0011
 KE= 3.177488696904D+02 PE=-1.227644691387D+03 EE= 3.518843564150D+02
 Leave Link  502 at Fri Sep  6 16:59:34 2019, MaxMem= 4294967296 cpu:     519.1
 (Enter /opt/g09gh/gaussian/g09/l801.exe)
 ExpMin= 1.03D-01 ExpMax= 1.53D+04 ExpMxC= 5.22D+02 IAcc=1 IRadAn=         1 AccDes= 0.00D+00
 HarFok:  IExCor=  205 AccDes= 0.00D+00 IRadAn=         1 IDoV=-2
 ScaDFX=  1.000000  1.000000  1.000000  1.000000
 Largest valence mixing into a core orbital is  2.17D-04
 Largest core mixing into a valence orbital is  3.50D-05
 Range of M.O.s used for correlation:     7   278
 NBasis=   278 NAE=    24 NBE=    24 NFC=     6 NFV=     0
 NROrb=    272 NOA=    18 NOB=    18 NVA=   254 NVB=   254

 **** Warning!!: The largest alpha MO coefficient is  0.10475127D+02

 Leave Link  801 at Fri Sep  6 16:59:35 2019, MaxMem= 4294967296 cpu:       0.5
 (Enter /opt/g09gh/gaussian/g09/l906.exe)
 Frozen-core derivative calculation, NFC=   6 NFV=   0.
 FulOut=F Deriv=T AODrv=T NAtomX=    13
   MMem=         282  MDisk=          18 MDiskD=          18
  W3Min=     2101680 MinDsk=     3282530 NBas6D=         315
 NBas2D=       50421    NTT=       49770    LW2=     3500000
    MDV=  4294058922 MDiskM=       68127 NBas2p=       48156
 Fully direct method using O(ONN) memory.
 IMap=   1   2   3   4   5   6   7   8   9  10  11  12  13  14  15  16  17  18  19  20
 IMap=  21  22  23  24
 JobTyp=1 Pass  1:  I=   7 to  24 NPSUse=  8 ParTrn=T ParDer=T DoDerP=T.
 Spin components of T(2) and E(2):
     alpha-alpha T2 =       0.4515049347D-01 E2=     -0.1516404235D+00
     alpha-beta  T2 =       0.2516828384D+00 E2=     -0.9046986808D+00
     beta-beta   T2 =       0.4515049347D-01 E2=     -0.1516404235D+00
 The integrals were generated   1 times.
 ANorm=    0.1158440255D+01
 E2 =    -0.1207979528D+01 EUMP2 =    -0.31931357077395D+03
 Leave Link  906 at Fri Sep  6 17:00:58 2019, MaxMem= 4294967296 cpu:     663.8
 (Enter /opt/g09gh/gaussian/g09/l1002.exe)
 Minotr:  Closed shell wavefunction.
          Computing MP2/KS-MP2 derivatives.
          Using Z-Vector for PSCF gradient.
          Skipping F1 and S1 gradient terms here.
          IDoAtm=1111111111111
          Frozen-core window.
          Direct CPHF calculation.
          Differentiating once with respect to electric field.
                with respect to dipole field.
          Differentiating once with respect to nuclear coordinates.
          Requested convergence is 1.0D-10 RMS, and 1.0D-09 maximum.
          NewPWx=F KeepS1=T KeepF1=T KeepIn=T MapXYZ=F SortEE=F KeepMc=T.
          MDV=    4294967162 using IRadAn=       0.
          Keep R1 ints in memory in canonical form, NReq=1240493221.
 Symmetry not used in FoFDir.
 MinBra= 0 MaxBra= 3 Meth= 1.
 IRaf=       0 NMat=   1 IRICut=       1 DoRegI=T DoRafI=F ISym2E= 0 JSym2E=0.
          Solving linear equations separately, MaxMat=       0.
          There are     1 degrees of freedom in the 1st order CPHF.  IDoFFX=0.
 LinEq1:  Iter=  0 NonCon=     1 RMS=3.81D-03 Max=1.16D-01
 AX will form     1 AO Fock derivatives at one time.
 LinEq1:  Iter=  1 NonCon=     1 RMS=1.03D-03 Max=1.71D-02
 LinEq1:  Iter=  2 NonCon=     1 RMS=3.73D-04 Max=7.23D-03
 LinEq1:  Iter=  3 NonCon=     1 RMS=1.62D-04 Max=4.12D-03
 LinEq1:  Iter=  4 NonCon=     1 RMS=4.74D-05 Max=5.70D-04
 LinEq1:  Iter=  5 NonCon=     1 RMS=1.28D-05 Max=2.85D-04
 LinEq1:  Iter=  6 NonCon=     1 RMS=3.93D-06 Max=6.20D-05
 LinEq1:  Iter=  7 NonCon=     1 RMS=1.46D-06 Max=5.26D-05
 LinEq1:  Iter=  8 NonCon=     1 RMS=4.55D-07 Max=7.71D-06
 LinEq1:  Iter=  9 NonCon=     1 RMS=1.94D-07 Max=6.73D-06
 LinEq1:  Iter= 10 NonCon=     1 RMS=6.32D-08 Max=8.04D-07
 LinEq1:  Iter= 11 NonCon=     1 RMS=1.73D-08 Max=3.29D-07
 LinEq1:  Iter= 12 NonCon=     1 RMS=5.02D-09 Max=8.17D-08
 LinEq1:  Iter= 13 NonCon=     1 RMS=1.59D-09 Max=4.02D-08
 LinEq1:  Iter= 14 NonCon=     1 RMS=3.96D-10 Max=5.85D-09
 LinEq1:  Iter= 15 NonCon=     1 RMS=1.72D-10 Max=2.89D-09
 LinEq1:  Iter= 16 NonCon=     0 RMS=3.72D-11 Max=6.38D-10
 Linear equations converged to 1.000D-10 1.000D-09 after    16 iterations.
 End of Minotr Frequency-dependent properties file   721 does not exist.
 End of Minotr Frequency-dependent properties file   722 does not exist.
 Leave Link 1002 at Fri Sep  6 17:02:35 2019, MaxMem= 4294967296 cpu:     771.8
 (Enter /opt/g09gh/gaussian/g09/l601.exe)
 Copying SCF densities to generalized density rwf, IOpCl= 0 IROHF=0.

 **********************************************************************

            Population analysis using the SCF density.

 **********************************************************************

 Alpha  occ. eigenvalues --  -20.51657 -15.55596 -15.55047 -15.52462 -11.34394
 Alpha  occ. eigenvalues --  -11.32503  -1.36789  -1.24589  -1.20191  -1.14647
 Alpha  occ. eigenvalues --   -0.84731  -0.79247  -0.74296  -0.73415  -0.68655
 Alpha  occ. eigenvalues --   -0.63493  -0.59334  -0.57350  -0.55814  -0.51909
 Alpha  occ. eigenvalues --   -0.44894  -0.40696  -0.38389  -0.36256
 Alpha virt. eigenvalues --    0.13440   0.15085   0.17454   0.18580   0.20150
 Alpha virt. eigenvalues --    0.20804   0.22141   0.28234   0.28945   0.36625
 Alpha virt. eigenvalues --    0.37951   0.40297   0.41479   0.43827   0.47549
 Alpha virt. eigenvalues --    0.49140   0.51799   0.54193   0.55824   0.58095
 Alpha virt. eigenvalues --    0.58825   0.59494   0.60964   0.61995   0.65969
 Alpha virt. eigenvalues --    0.66867   0.68352   0.70646   0.73056   0.73976
 Alpha virt. eigenvalues --    0.75229   0.75747   0.76328   0.78841   0.79021
 Alpha virt. eigenvalues --    0.81957   0.85196   0.87978   0.88929   0.92400
 Alpha virt. eigenvalues --    0.94109   0.97519   0.98056   1.00567   1.01710
 Alpha virt. eigenvalues --    1.04811   1.06435   1.07740   1.07886   1.10414
 Alpha virt. eigenvalues --    1.15269   1.16883   1.18085   1.18518   1.19732
 Alpha virt. eigenvalues --    1.23215   1.23499   1.23999   1.27865   1.31034
 Alpha virt. eigenvalues --    1.32787   1.41485   1.46912   1.51252   1.56445
 Alpha virt. eigenvalues --    1.58538   1.60354   1.60709   1.61617   1.62639
 Alpha virt. eigenvalues --    1.63831   1.64663   1.67437   1.75243   1.78280
 Alpha virt. eigenvalues --    1.81279   1.82890   1.86335   1.91676   1.93778
 Alpha virt. eigenvalues --    1.96829   1.97981   2.00264   2.02240   2.05758
 Alpha virt. eigenvalues --    2.10612   2.14083   2.17414   2.19907   2.30592
 Alpha virt. eigenvalues --    2.34303   2.38704   2.42125   2.43887   2.48235
 Alpha virt. eigenvalues --    2.54946   2.61996   2.68236   2.74346   2.80066
 Alpha virt. eigenvalues --    2.85963   2.86792   2.89850   2.94538   2.95006
 Alpha virt. eigenvalues --    2.97359   2.98642   3.01175   3.07568   3.08511
 Alpha virt. eigenvalues --    3.13900   3.15404   3.20035   3.23877   3.26011
 Alpha virt. eigenvalues --    3.27681   3.29003   3.30885   3.31768   3.32868
 Alpha virt. eigenvalues --    3.38523   3.39394   3.40066   3.42806   3.43605
 Alpha virt. eigenvalues --    3.46711   3.47054   3.49575   3.53872   3.57067
 Alpha virt. eigenvalues --    3.57225   3.57457   3.61968   3.62672   3.64539
 Alpha virt. eigenvalues --    3.68272   3.70096   3.73070   3.73896   3.79106
 Alpha virt. eigenvalues --    3.79414   3.83843   3.84104   3.86561   3.87717
 Alpha virt. eigenvalues --    3.90344   3.91726   3.96022   3.96412   3.98717
 Alpha virt. eigenvalues --    4.01144   4.01546   4.04534   4.07154   4.07747
 Alpha virt. eigenvalues --    4.10507   4.10738   4.14830   4.16163   4.19729
 Alpha virt. eigenvalues --    4.20751   4.24296   4.24619   4.28432   4.33442
 Alpha virt. eigenvalues --    4.36178   4.39612   4.39804   4.40739   4.42772
 Alpha virt. eigenvalues --    4.44961   4.46786   4.48581   4.51332   4.52046
 Alpha virt. eigenvalues --    4.55480   4.58124   4.58472   4.62066   4.70049
 Alpha virt. eigenvalues --    4.76826   4.77471   4.80937   4.87698   4.92356
 Alpha virt. eigenvalues --    4.93886   4.96920   4.97369   5.01395   5.01514
 Alpha virt. eigenvalues --    5.06664   5.12259   5.13452   5.16218   5.19408
 Alpha virt. eigenvalues --    5.20079   5.24278   5.27592   5.28389   5.29312
 Alpha virt. eigenvalues --    5.30423   5.36775   5.38798   5.39465   5.48530
 Alpha virt. eigenvalues --    5.53291   5.56157   5.60888   5.64709   5.67396
 Alpha virt. eigenvalues --    5.72714   5.75148   5.78216   5.79679   5.85555
 Alpha virt. eigenvalues --    5.89511   5.95349   5.98474   6.00150   6.01581
 Alpha virt. eigenvalues --    6.02799   6.08204   6.10198   6.12628   6.19300
 Alpha virt. eigenvalues --    6.19467   6.31966   6.36237   6.40896   6.44565
 Alpha virt. eigenvalues --    6.59255   6.62204   6.72985   6.76925   6.79148
 Alpha virt. eigenvalues --    6.90425   6.98570   7.00710   7.15714   7.25108
 Alpha virt. eigenvalues --    7.25348   7.34496   7.40655   7.48799   7.57551
 Alpha virt. eigenvalues --    7.74599   7.89875   8.10315  10.48152  10.73706
 Alpha virt. eigenvalues --   13.15578  13.92271  14.84029  14.94341
          Condensed to atoms (all electrons):
              1          2          3          4          5          6
     1  C    4.307009   0.447494   0.618065   0.425385  -0.016990  -0.025692
     2  H    0.447494   0.667116  -0.057048  -0.115793   0.004416  -0.008404
     3  O    0.618065  -0.057048   8.004212  -0.083560  -0.001417   0.002994
     4  N    0.425385  -0.115793  -0.083560   6.545427   0.323022   0.365080
     5  H   -0.016990   0.004416  -0.001417   0.323022   0.348221  -0.021923
     6  H   -0.025692  -0.008404   0.002994   0.365080  -0.021923   0.507724
     7  C    0.002732   0.000174   0.007545  -0.001750  -0.007720   0.000122
     8  H   -0.000077  -0.000020  -0.000302  -0.000984   0.003103   0.000036
     9  N   -0.004191  -0.000952  -0.001116  -0.145834   0.138225   0.005923
    10  H    0.000177   0.000043   0.000123   0.006646  -0.012397  -0.000296
    11  N   -0.000522  -0.000607  -0.080928   0.003322  -0.003452  -0.000054
    12  H   -0.010788   0.000790   0.064410   0.000362   0.001258  -0.000108
    13  H    0.000131   0.000047   0.003600  -0.000083  -0.000009   0.000000
              7          8          9         10         11         12
     1  C    0.002732  -0.000077  -0.004191   0.000177  -0.000522  -0.010788
     2  H    0.000174  -0.000020  -0.000952   0.000043  -0.000607   0.000790
     3  O    0.007545  -0.000302  -0.001116   0.000123  -0.080928   0.064410
     4  N   -0.001750  -0.000984  -0.145834   0.006646   0.003322   0.000362
     5  H   -0.007720   0.003103   0.138225  -0.012397  -0.003452   0.001258
     6  H    0.000122   0.000036   0.005923  -0.000296  -0.000054  -0.000108
     7  C    4.454951   0.442923   0.589074  -0.034339   0.459711  -0.020728
     8  H    0.442923   0.633900  -0.051572  -0.027707  -0.076610   0.005811
     9  N    0.589074  -0.051572   6.632844   0.334911  -0.067997  -0.002085
    10  H   -0.034339  -0.027707   0.334911   0.569862   0.007651  -0.000191
    11  N    0.459711  -0.076610  -0.067997   0.007651   6.317774   0.377922
    12  H   -0.020728   0.005811  -0.002085  -0.000191   0.377922   0.355748
    13  H   -0.029835  -0.011800   0.003336  -0.000304   0.388614  -0.031775
             13
     1  C    0.000131
     2  H    0.000047
     3  O    0.003600
     4  N   -0.000083
     5  H   -0.000009
     6  H    0.000000
     7  C   -0.029835
     8  H   -0.011800
     9  N    0.003336
    10  H   -0.000304
    11  N    0.388614
    12  H   -0.031775
    13  H    0.500777
 Mulliken atomic charges:
              1
     1  C    0.257267
     2  H    0.062745
     3  O   -0.476578
     4  N   -0.321239
     5  H    0.245661
     6  H    0.174599
     7  C    0.137140
     8  H    0.083299
     9  N   -0.430566
    10  H    0.155823
    11  N   -0.324824
    12  H    0.259373
    13  H    0.177300
 Sum of Mulliken atomic charges =   0.00000
 Mulliken charges with hydrogens summed into heavy atoms:
              1
     1  C    0.320012
     3  O   -0.476578
     4  N    0.099021
     7  C    0.220439
     9  N   -0.274743
    11  N    0.111850
 Sum of Mulliken charges with hydrogens summed into heavy atoms =   0.00000
          Condensed to fragments (all electrons):
     1      -0.057545
     2       0.057545
 Electronic spatial extent (au):  <R**2>=            662.9259
 Charge=              0.0000 electrons
 Dipole moment (field-independent basis, Debye):
    X=              1.3668    Y=             -1.5412    Z=              0.0000  Tot=              2.0600
 Quadrupole moment (field-independent basis, Debye-Ang):
   XX=            -24.1151   YY=            -34.6548   ZZ=            -39.5057
   XY=              5.4133   XZ=              0.0000   YZ=              0.0000
 Traceless Quadrupole moment (field-independent basis, Debye-Ang):
   XX=              8.6435   YY=             -1.8963   ZZ=             -6.7472
   XY=              5.4133   XZ=              0.0000   YZ=              0.0000
 Octapole moment (field-independent basis, Debye-Ang**2):
  XXX=              0.9430  YYY=             -3.6128  ZZZ=              0.0000  XYY=              8.3294
  XXY=             -5.3028  XXZ=              0.0000  XZZ=             -2.5231  YZZ=              2.8072
  YYZ=              0.0000  XYZ=              0.0000
 Hexadecapole moment (field-independent basis, Debye-Ang**3):
 XXXX=           -427.6961 YYYY=           -248.6629 ZZZZ=            -37.1953 XXXY=             23.9694
 XXXZ=              0.0000 YYYX=             18.1246 YYYZ=              0.0000 ZZZX=              0.0000
 ZZZY=              0.0000 XXYY=           -100.5611 XXZZ=           -100.2656 YYZZ=            -58.2353
 XXYZ=              0.0000 YYXZ=              0.0000 ZZXY=             -2.4369
 N-N= 2.399058740352D+02 E-N=-1.227644688782D+03  KE= 3.177488696904D+02
 No NMR shielding tensors so no spin-rotation constants.
 Leave Link  601 at Fri Sep  6 17:02:35 2019, MaxMem= 4294967296 cpu:       1.8
 (Enter /opt/g09gh/gaussian/g09/l701.exe)
 Compute integral first derivatives.
 ... and contract with generalized density number  2.
 Leave Link  701 at Fri Sep  6 17:02:35 2019, MaxMem= 4294967296 cpu:       2.1
 (Enter /opt/g09gh/gaussian/g09/l702.exe)
 L702 exits ... SP integral derivatives will be done elsewhere.
 Leave Link  702 at Fri Sep  6 17:02:35 2019, MaxMem= 4294967296 cpu:       0.2
 (Enter /opt/g09gh/gaussian/g09/l703.exe)
 Compute integral first derivatives, UseDBF=F ICtDFT=           0.
 Integral derivatives from FoFDir, PRISM(SPDF).
 Calling FoFJK, ICntrl=      2127 FMM=F ISym2X=0 I1Cent= 0 IOpClX= 0 NMat=1 NMatS=1 NMatT=0.
 FoFCou: FMM=F IPFlag=           0 FMFlag=      100000 FMFlg1=         800
         NFxFlg=           0 DoJE=F BraDBF=F KetDBF=F FulRan=T
         Omega=  0.000000  0.000000  1.000000  0.000000  0.000000 ICntrl=    2127 IOpCl=  0
         NMat0=    1 NMatS0=    1 NMatT0=    0 NMatD0=    1 NMtDS0=    0 NMtDT0=    0
         I1Cent=           0 NGrid=           0.
 Symmetry not used in FoFCou.
 Leave Link  703 at Fri Sep  6 17:02:49 2019, MaxMem= 4294967296 cpu:     107.5
 (Enter /opt/g09gh/gaussian/g09/l716.exe)
 Dipole        = 5.65809914D-01-5.68940129D-01-1.53109228D-15
 Cartesian Forces:  Max     0.061756966 RMS     0.015066042
 Leave Link  716 at Fri Sep  6 17:02:49 2019, MaxMem= 4294967296 cpu:       0.5
 (Enter /opt/g09gh/gaussian/g09/l122.exe)
 Counterpoise: doing DCBS calculation for fragment   1 NewBq=T
 Leave Link  122 at Fri Sep  6 17:02:49 2019, MaxMem= 4294967296 cpu:       0.0
 (Enter /opt/g09gh/gaussian/g09/l301.exe)
 Basis read from rwf:  (5D, 7F)
 No pseudopotential information found on rwf file.
 Integral buffers will be    131072 words long.
 Raffenetti 1 integral format.
 Two-electron integral symmetry is turned off.
   278 basis functions,   431 primitive gaussians,   315 cartesian basis functions
    12 alpha electrons       12 beta electrons
       nuclear repulsion energy        70.1304000006 Hartrees.
 IExCor=    0 DFT=F Ex=HF Corr=None ExCW=0 ScaHFX=  1.000000
 ScaDFX=  1.000000  1.000000  1.000000  1.000000 ScalE2=  1.000000  1.000000
 IRadAn=      0 IRanWt=     -1 IRanGd=            0 ICorTp=0
 NAtoms=   13 NActive=   13 NUniq=   13 SFac= 7.50D-01 NAtFMM=   80 NAOKFM=F Big=F
 No density basis found on file   718.
 Leave Link  301 at Fri Sep  6 17:02:49 2019, MaxMem= 4294967296 cpu:       0.8
 (Enter /opt/g09gh/gaussian/g09/l302.exe)
 NPDir=0 NMtPBC=     1 NCelOv=     1 NCel=       1 NClECP=     1 NCelD=      1
         NCelK=      1 NCelE2=     1 NClLst=     1 CellRange=     0.0.
 One-electron integrals computed using PRISM.
 NBasis=   278 RedAO= T  NBF=   278
 NBsUse=   278 1.00D-06 NBFU=   278
 Leave Link  302 at Fri Sep  6 17:02:50 2019, MaxMem= 4294967296 cpu:       2.2
 (Enter /opt/g09gh/gaussian/g09/l303.exe)
 DipDrv:  MaxL=1.
 Leave Link  303 at Fri Sep  6 17:02:50 2019, MaxMem= 4294967296 cpu:       0.4
 (Enter /opt/g09gh/gaussian/g09/l401.exe)
 Harris functional with IExCor=  205 diagonalized for initial guess.
 ExpMin= 1.03D-01 ExpMax= 1.53D+04 ExpMxC= 5.22D+02 IAcc=1 IRadAn=         1 AccDes= 0.00D+00
 HarFok:  IExCor=  205 AccDes= 0.00D+00 IRadAn=         1 IDoV= 1
 ScaDFX=  1.000000  1.000000  1.000000  1.000000
 FoFCou: FMM=F IPFlag=           0 FMFlag=      100000 FMFlg1=           0
         NFxFlg=           0 DoJE=T BraDBF=F KetDBF=T FulRan=T
         Omega=  0.000000  0.000000  1.000000  0.000000  0.000000 ICntrl=     500 IOpCl=  0
         NMat0=    1 NMatS0=    1 NMatT0=    0 NMatD0=    1 NMtDS0=    0 NMtDT0=    0
         I1Cent=           4 NGrid=           0.
 Symmetry not used in FoFCou.
 Harris En= -169.171099244432    
 Leave Link  401 at Fri Sep  6 17:02:50 2019, MaxMem= 4294967296 cpu:       4.0
 (Enter /opt/g09gh/gaussian/g09/l502.exe)
 Closed shell SCF:
 Requested convergence on RMS density matrix=1.00D-08 within  64 cycles.
 Requested convergence on MAX density matrix=1.00D-06.
 Requested convergence on             energy=1.00D-06.
 No special actions if energy rises.
 Using DIIS extrapolation, IDIIS=  1040.
 Two-electron integral symmetry not used.
 Keep R1 ints in memory in canonical form, NReq=1254636088.
 IEnd=      307649 IEndB=      307649 NGot=  4294967296 MDV=  3056212049
 LenX=  3056212049 LenY=  3056112383
 Symmetry not used in FoFDir.
 MinBra= 0 MaxBra= 3 Meth= 1.
 IRaf=       0 NMat=   1 IRICut=       1 DoRegI=T DoRafI=F ISym2E= 0 JSym2E=0.

 Cycle   1  Pass 1  IDiag  1:
 E= -168.831865729135    
 DIIS: error= 4.35D-02 at cycle   1 NSaved=   1.
 NSaved= 1 IEnMin= 1 EnMin= -168.831865729135     IErMin= 1 ErrMin= 4.35D-02
 ErrMax= 4.35D-02 EMaxC= 1.00D-01 BMatC= 3.45D-01 BMatP= 3.45D-01
 IDIUse=3 WtCom= 5.65D-01 WtEn= 4.35D-01
 Coeff-Com:  0.100D+01
 Coeff-En:   0.100D+01
 Coeff:      0.100D+01
 Gap=     0.572 Goal=   None    Shift=    0.000
 GapD=    0.572 DampG=2.000 DampE=0.500 DampFc=1.0000 IDamp=-1.
 RMSDP=1.54D-03 MaxDP=1.12D-01              OVMax= 1.43D-01

 Cycle   2  Pass 1  IDiag  1:
 E= -168.944132208842     Delta-E=       -0.112266479707 Rises=F Damp=F
 DIIS: error= 2.07D-02 at cycle   2 NSaved=   2.
 NSaved= 2 IEnMin= 2 EnMin= -168.944132208842     IErMin= 2 ErrMin= 2.07D-02
 ErrMax= 2.07D-02 EMaxC= 1.00D-01 BMatC= 6.00D-02 BMatP= 3.45D-01
 IDIUse=3 WtCom= 7.93D-01 WtEn= 2.07D-01
 Coeff-Com:  0.233D+00 0.767D+00
 Coeff-En:   0.000D+00 0.100D+01
 Coeff:      0.185D+00 0.815D+00
 Gap=     0.549 Goal=   None    Shift=    0.000
 RMSDP=8.40D-04 MaxDP=6.75D-02 DE=-1.12D-01 OVMax= 6.63D-02

 Cycle   3  Pass 1  IDiag  1:
 E= -168.977544143787     Delta-E=       -0.033411934945 Rises=F Damp=F
 DIIS: error= 9.56D-03 at cycle   3 NSaved=   3.
 NSaved= 3 IEnMin= 3 EnMin= -168.977544143787     IErMin= 3 ErrMin= 9.56D-03
 ErrMax= 9.56D-03 EMaxC= 1.00D-01 BMatC= 1.02D-02 BMatP= 6.00D-02
 IDIUse=3 WtCom= 9.04D-01 WtEn= 9.56D-02
 Coeff-Com: -0.180D-01 0.270D+00 0.748D+00
 Coeff-En:   0.000D+00 0.000D+00 0.100D+01
 Coeff:     -0.163D-01 0.244D+00 0.772D+00
 Gap=     0.515 Goal=   None    Shift=    0.000
 RMSDP=1.89D-04 MaxDP=9.63D-03 DE=-3.34D-02 OVMax= 3.04D-02

 Cycle   4  Pass 1  IDiag  1:
 E= -168.983721409161     Delta-E=       -0.006177265374 Rises=F Damp=F
 DIIS: error= 1.10D-03 at cycle   4 NSaved=   4.
 NSaved= 4 IEnMin= 4 EnMin= -168.983721409161     IErMin= 4 ErrMin= 1.10D-03
 ErrMax= 1.10D-03 EMaxC= 1.00D-01 BMatC= 4.88D-04 BMatP= 1.02D-02
 IDIUse=3 WtCom= 9.89D-01 WtEn= 1.10D-02
 Coeff-Com: -0.132D-01 0.566D-01 0.267D+00 0.690D+00
 Coeff-En:   0.000D+00 0.000D+00 0.000D+00 0.100D+01
 Coeff:     -0.131D-01 0.560D-01 0.264D+00 0.693D+00
 Gap=     0.506 Goal=   None    Shift=    0.000
 RMSDP=5.23D-05 MaxDP=2.40D-03 DE=-6.18D-03 OVMax= 5.34D-03

 Cycle   5  Pass 1  IDiag  1:
 E= -168.984127777265     Delta-E=       -0.000406368104 Rises=F Damp=F
 DIIS: error= 4.59D-04 at cycle   5 NSaved=   5.
 NSaved= 5 IEnMin= 5 EnMin= -168.984127777265     IErMin= 5 ErrMin= 4.59D-04
 ErrMax= 4.59D-04 EMaxC= 1.00D-01 BMatC= 2.04D-05 BMatP= 4.88D-04
 IDIUse=3 WtCom= 9.95D-01 WtEn= 4.59D-03
 Coeff-Com:  0.327D-02-0.273D-01-0.104D+00-0.806D-01 0.121D+01
 Coeff-En:   0.000D+00 0.000D+00 0.000D+00 0.000D+00 0.100D+01
 Coeff:      0.325D-02-0.272D-01-0.104D+00-0.802D-01 0.121D+01
 Gap=     0.506 Goal=   None    Shift=    0.000
 RMSDP=2.72D-05 MaxDP=1.67D-03 DE=-4.06D-04 OVMax= 4.53D-03

 Cycle   6  Pass 1  IDiag  1:
 E= -168.984180861767     Delta-E=       -0.000053084502 Rises=F Damp=F
 DIIS: error= 1.15D-04 at cycle   6 NSaved=   6.
 NSaved= 6 IEnMin= 6 EnMin= -168.984180861767     IErMin= 6 ErrMin= 1.15D-04
 ErrMax= 1.15D-04 EMaxC= 1.00D-01 BMatC= 3.38D-06 BMatP= 2.04D-05
 IDIUse=3 WtCom= 9.99D-01 WtEn= 1.15D-03
 Coeff-Com:  0.173D-02-0.103D-01-0.415D-01-0.943D-01 0.191D+00 0.954D+00
 Coeff-En:   0.000D+00 0.000D+00 0.000D+00 0.000D+00 0.000D+00 0.100D+01
 Coeff:      0.172D-02-0.102D-01-0.414D-01-0.942D-01 0.191D+00 0.954D+00
 Gap=     0.507 Goal=   None    Shift=    0.000
 RMSDP=1.08D-05 MaxDP=6.97D-04 DE=-5.31D-05 OVMax= 1.26D-03

 Cycle   7  Pass 1  IDiag  1:
 E= -168.984187989817     Delta-E=       -0.000007128049 Rises=F Damp=F
 DIIS: error= 5.43D-05 at cycle   7 NSaved=   7.
 NSaved= 7 IEnMin= 7 EnMin= -168.984187989817     IErMin= 7 ErrMin= 5.43D-05
 ErrMax= 5.43D-05 EMaxC= 1.00D-01 BMatC= 4.46D-07 BMatP= 3.38D-06
 IDIUse=1 WtCom= 1.00D+00 WtEn= 0.00D+00
 Coeff-Com: -0.479D-03 0.453D-02 0.190D-01 0.639D-02-0.177D+00-0.485D-01
 Coeff-Com:  0.120D+01
 Coeff:     -0.479D-03 0.453D-02 0.190D-01 0.639D-02-0.177D+00-0.485D-01
 Coeff:      0.120D+01
 Gap=     0.507 Goal=   None    Shift=    0.000
 RMSDP=4.82D-06 MaxDP=2.83D-04 DE=-7.13D-06 OVMax= 8.10D-04

 Cycle   8  Pass 1  IDiag  1:
 E= -168.984189312775     Delta-E=       -0.000001322958 Rises=F Damp=F
 DIIS: error= 1.74D-05 at cycle   8 NSaved=   8.
 NSaved= 8 IEnMin= 8 EnMin= -168.984189312775     IErMin= 8 ErrMin= 1.74D-05
 ErrMax= 1.74D-05 EMaxC= 1.00D-01 BMatC= 3.89D-08 BMatP= 4.46D-07
 IDIUse=1 WtCom= 1.00D+00 WtEn= 0.00D+00
 Coeff-Com: -0.621D-04 0.110D-03-0.106D-03 0.382D-02 0.255D-01-0.692D-01
 Coeff-Com: -0.313D+00 0.135D+01
 Coeff:     -0.621D-04 0.110D-03-0.106D-03 0.382D-02 0.255D-01-0.692D-01
 Coeff:     -0.313D+00 0.135D+01
 Gap=     0.508 Goal=   None    Shift=    0.000
 RMSDP=1.65D-06 MaxDP=8.49D-05 DE=-1.32D-06 OVMax= 2.85D-04

 Cycle   9  Pass 1  IDiag  1:
 E= -168.984189456236     Delta-E=       -0.000000143461 Rises=F Damp=F
 DIIS: error= 4.47D-06 at cycle   9 NSaved=   9.
 NSaved= 9 IEnMin= 9 EnMin= -168.984189456236     IErMin= 9 ErrMin= 4.47D-06
 ErrMax= 4.47D-06 EMaxC= 1.00D-01 BMatC= 4.17D-09 BMatP= 3.89D-08
 IDIUse=1 WtCom= 1.00D+00 WtEn= 0.00D+00
 Coeff-Com:  0.642D-04-0.470D-03-0.156D-02-0.314D-02 0.870D-02 0.311D-01
 Coeff-Com: -0.967D-03-0.473D+00 0.144D+01
 Coeff:      0.642D-04-0.470D-03-0.156D-02-0.314D-02 0.870D-02 0.311D-01
 Coeff:     -0.967D-03-0.473D+00 0.144D+01
 Gap=     0.508 Goal=   None    Shift=    0.000
 RMSDP=4.92D-07 MaxDP=2.48D-05 DE=-1.43D-07 OVMax= 7.37D-05

 Cycle  10  Pass 1  IDiag  1:
 E= -168.984189469623     Delta-E=       -0.000000013388 Rises=F Damp=F
 DIIS: error= 1.10D-06 at cycle  10 NSaved=  10.
 NSaved=10 IEnMin=10 EnMin= -168.984189469623     IErMin=10 ErrMin= 1.10D-06
 ErrMax= 1.10D-06 EMaxC= 1.00D-01 BMatC= 2.96D-10 BMatP= 4.17D-09
 IDIUse=1 WtCom= 1.00D+00 WtEn= 0.00D+00
 Coeff-Com: -0.147D-06 0.289D-04 0.256D-03-0.206D-03-0.407D-02 0.467D-02
 Coeff-Com:  0.346D-01-0.888D-01-0.176D+00 0.123D+01
 Coeff:     -0.147D-06 0.289D-04 0.256D-03-0.206D-03-0.407D-02 0.467D-02
 Coeff:      0.346D-01-0.888D-01-0.176D+00 0.123D+01
 Gap=     0.508 Goal=   None    Shift=    0.000
 RMSDP=1.28D-07 MaxDP=6.51D-06 DE=-1.34D-08 OVMax= 1.45D-05

 Cycle  11  Pass 1  IDiag  1:
 E= -168.984189470379     Delta-E=       -0.000000000756 Rises=F Damp=F
 DIIS: error= 1.75D-07 at cycle  11 NSaved=  11.
 NSaved=11 IEnMin=11 EnMin= -168.984189470379     IErMin=11 ErrMin= 1.75D-07
 ErrMax= 1.75D-07 EMaxC= 1.00D-01 BMatC= 6.76D-12 BMatP= 2.96D-10
 IDIUse=1 WtCom= 1.00D+00 WtEn= 0.00D+00
 Coeff-Com: -0.262D-05 0.166D-04 0.304D-04 0.169D-03 0.716D-04-0.126D-02
 Coeff-Com: -0.608D-02 0.335D-01-0.259D-01-0.217D+00 0.122D+01
 Coeff:     -0.262D-05 0.166D-04 0.304D-04 0.169D-03 0.716D-04-0.126D-02
 Coeff:     -0.608D-02 0.335D-01-0.259D-01-0.217D+00 0.122D+01
 Gap=     0.508 Goal=   None    Shift=    0.000
 RMSDP=1.49D-08 MaxDP=6.01D-07 DE=-7.56D-10 OVMax= 2.13D-06

 Cycle  12  Pass 1  IDiag  1:
 E= -168.984189470394     Delta-E=       -0.000000000015 Rises=F Damp=F
 DIIS: error= 2.72D-08 at cycle  12 NSaved=  12.
 NSaved=12 IEnMin=12 EnMin= -168.984189470394     IErMin=12 ErrMin= 2.72D-08
 ErrMax= 2.72D-08 EMaxC= 1.00D-01 BMatC= 1.99D-13 BMatP= 6.76D-12
 IDIUse=1 WtCom= 1.00D+00 WtEn= 0.00D+00
 Coeff-Com:  0.339D-06-0.301D-05-0.934D-05-0.284D-04 0.641D-04 0.231D-03
 Coeff-Com:  0.168D-03-0.440D-02 0.116D-01-0.209D-02-0.200D+00 0.119D+01
 Coeff:      0.339D-06-0.301D-05-0.934D-05-0.284D-04 0.641D-04 0.231D-03
 Coeff:      0.168D-03-0.440D-02 0.116D-01-0.209D-02-0.200D+00 0.119D+01
 Gap=     0.508 Goal=   None    Shift=    0.000
 RMSDP=2.84D-09 MaxDP=1.25D-07 DE=-1.51D-11 OVMax= 3.32D-07

 SCF Done:  E(RHF) =  -168.984189470     A.U. after   12 cycles
             Convg  =    0.2842D-08             -V/T =  2.0027
 KE= 1.685311321926D+02 PE=-5.380072751408D+02 EE= 1.303615534772D+02
 Leave Link  502 at Fri Sep  6 17:03:59 2019, MaxMem= 4294967296 cpu:     544.6
 (Enter /opt/g09gh/gaussian/g09/l801.exe)
 ExpMin= 1.03D-01 ExpMax= 1.53D+04 ExpMxC= 5.22D+02 IAcc=1 IRadAn=         1 AccDes= 0.00D+00
 HarFok:  IExCor=  205 AccDes= 0.00D+00 IRadAn=         1 IDoV=-2
 ScaDFX=  1.000000  1.000000  1.000000  1.000000
 Largest valence mixing into a core orbital is  2.16D-04
 Largest core mixing into a valence orbital is  2.93D-05
 Range of M.O.s used for correlation:     4   278
 NBasis=   278 NAE=    12 NBE=    12 NFC=     3 NFV=     0
 NROrb=    275 NOA=     9 NOB=     9 NVA=   266 NVB=   266
 Leave Link  801 at Fri Sep  6 17:03:59 2019, MaxMem= 4294967296 cpu:       0.4
 (Enter /opt/g09gh/gaussian/g09/l906.exe)
 Frozen-core derivative calculation, NFC=   3 NFV=   0.
 FulOut=F Deriv=T AODrv=T NAtomX=    13
   MMem=         282  MDisk=           9 MDiskD=           9
  W3Min=     1050840 MinDsk=     2088050 NBas6D=         315
 NBas2D=       50421    NTT=       49770    LW2=     3500000
    MDV=  4294055961 MDiskM=       68127 NBas2p=       48156
 Fully direct method using O(ONN) memory.
 IMap=   1   2   3   4   5   6   7   8   9  10  11  12
 JobTyp=1 Pass  1:  I=   4 to  12 NPSUse=  8 ParTrn=T ParDer=T DoDerP=T.
 Spin components of T(2) and E(2):
     alpha-alpha T2 =       0.2217493476D-01 E2=     -0.7649037729D-01
     alpha-beta  T2 =       0.1248380812D+00 E2=     -0.4581890941D+00
     beta-beta   T2 =       0.2217493476D-01 E2=     -0.7649037729D-01
 The integrals were generated   1 times.
 ANorm=    0.1081289948D+01
 E2 =    -0.6111698486D+00 EUMP2 =    -0.16959535931904D+03
 Leave Link  906 at Fri Sep  6 17:05:01 2019, MaxMem= 4294967296 cpu:     495.8
 (Enter /opt/g09gh/gaussian/g09/l1002.exe)
 Minotr:  Closed shell wavefunction.
          Computing MP2/KS-MP2 derivatives.
          Using Z-Vector for PSCF gradient.
          Skipping F1 and S1 gradient terms here.
          IDoAtm=1111111111111
          Frozen-core window.
          Direct CPHF calculation.
          Differentiating once with respect to electric field.
                with respect to dipole field.
          Differentiating once with respect to nuclear coordinates.
          Requested convergence is 1.0D-10 RMS, and 1.0D-09 maximum.
          NewPWx=F KeepS1=T KeepF1=T KeepIn=T MapXYZ=F SortEE=F KeepMc=T.
          MDV=    4294967162 using IRadAn=       0.
          Keep R1 ints in memory in canonical form, NReq=1240493221.
 Symmetry not used in FoFDir.
 MinBra= 0 MaxBra= 3 Meth= 1.
 IRaf=       0 NMat=   1 IRICut=       1 DoRegI=T DoRafI=F ISym2E= 0 JSym2E=0.
          Solving linear equations separately, MaxMat=       0.
          There are     1 degrees of freedom in the 1st order CPHF.  IDoFFX=0.
 LinEq1:  Iter=  0 NonCon=     1 RMS=4.03D-03 Max=1.43D-01
 AX will form     1 AO Fock derivatives at one time.
 LinEq1:  Iter=  1 NonCon=     1 RMS=1.21D-03 Max=2.67D-02
 LinEq1:  Iter=  2 NonCon=     1 RMS=4.45D-04 Max=6.98D-03
 LinEq1:  Iter=  3 NonCon=     1 RMS=2.04D-04 Max=4.00D-03
 LinEq1:  Iter=  4 NonCon=     1 RMS=4.51D-05 Max=7.73D-04
 LinEq1:  Iter=  5 NonCon=     1 RMS=7.02D-06 Max=1.06D-04
 LinEq1:  Iter=  6 NonCon=     1 RMS=1.78D-06 Max=4.59D-05
 LinEq1:  Iter=  7 NonCon=     1 RMS=4.28D-07 Max=7.82D-06
 LinEq1:  Iter=  8 NonCon=     1 RMS=9.63D-08 Max=1.45D-06
 LinEq1:  Iter=  9 NonCon=     1 RMS=3.28D-08 Max=3.35D-07
 LinEq1:  Iter= 10 NonCon=     1 RMS=1.00D-08 Max=1.05D-07
 LinEq1:  Iter= 11 NonCon=     1 RMS=1.49D-09 Max=1.73D-08
 LinEq1:  Iter= 12 NonCon=     1 RMS=1.98D-10 Max=2.51D-09
 LinEq1:  Iter= 13 NonCon=     0 RMS=2.38D-11 Max=2.11D-10
 Linear equations converged to 1.000D-10 1.000D-09 after    13 iterations.
 End of Minotr Frequency-dependent properties file   721 does not exist.
 End of Minotr Frequency-dependent properties file   722 does not exist.
 Leave Link 1002 at Fri Sep  6 17:06:20 2019, MaxMem= 4294967296 cpu:     627.3
 (Enter /opt/g09gh/gaussian/g09/l601.exe)
 Copying SCF densities to generalized density rwf, IOpCl= 0 IROHF=0.

 **********************************************************************

            Population analysis using the SCF density.

 **********************************************************************

 Alpha  occ. eigenvalues --  -20.52668 -15.61420 -11.35760  -1.36335  -1.23630
 Alpha  occ. eigenvalues --   -0.84066  -0.75756  -0.66644  -0.59354  -0.57019
 Alpha  occ. eigenvalues --   -0.42664  -0.42336
 Alpha virt. eigenvalues --    0.08419   0.12638   0.14204   0.18222   0.18643
 Alpha virt. eigenvalues --    0.20986   0.23330   0.26840   0.27417   0.29821
 Alpha virt. eigenvalues --    0.35046   0.37604   0.39463   0.40822   0.42578
 Alpha virt. eigenvalues --    0.44880   0.46065   0.52232   0.54832   0.55104
 Alpha virt. eigenvalues --    0.55620   0.57065   0.59870   0.63380   0.66325
 Alpha virt. eigenvalues --    0.66452   0.68764   0.70355   0.71966   0.72690
 Alpha virt. eigenvalues --    0.78180   0.81785   0.84958   0.85760   0.88169
 Alpha virt. eigenvalues --    0.90672   0.92373   0.95207   0.97907   0.98580
 Alpha virt. eigenvalues --    1.02295   1.04855   1.08217   1.08534   1.09897
 Alpha virt. eigenvalues --    1.12181   1.12635   1.14500   1.15803   1.16048
 Alpha virt. eigenvalues --    1.17708   1.24525   1.24579   1.25976   1.28978
 Alpha virt. eigenvalues --    1.30147   1.31512   1.33685   1.35614   1.38739
 Alpha virt. eigenvalues --    1.38931   1.44204   1.44541   1.47590   1.48765
 Alpha virt. eigenvalues --    1.49870   1.56704   1.58375   1.61720   1.62539
 Alpha virt. eigenvalues --    1.66547   1.68870   1.69907   1.73634   1.75627
 Alpha virt. eigenvalues --    1.83225   1.87696   1.89659   1.91227   1.94616
 Alpha virt. eigenvalues --    1.95336   1.98055   2.06193   2.08415   2.09870
 Alpha virt. eigenvalues --    2.18319   2.20503   2.27955   2.28165   2.30069
 Alpha virt. eigenvalues --    2.31665   2.40063   2.43609   2.46206   2.46772
 Alpha virt. eigenvalues --    2.48306   2.54189   2.60687   2.63963   2.68886
 Alpha virt. eigenvalues --    2.76816   2.83444   2.87350   2.89451   2.92676
 Alpha virt. eigenvalues --    2.93180   2.98235   2.98393   3.05015   3.07981
 Alpha virt. eigenvalues --    3.14569   3.17154   3.19449   3.28175   3.28396
 Alpha virt. eigenvalues --    3.39356   3.40721   3.44815   3.49079   3.51077
 Alpha virt. eigenvalues --    3.54976   3.55400   3.59022   3.63362   3.64168
 Alpha virt. eigenvalues --    3.65404   3.70464   3.72713   3.77493   3.79588
 Alpha virt. eigenvalues --    3.80680   3.83893   3.84155   3.91413   3.93222
 Alpha virt. eigenvalues --    3.95059   3.95690   3.96758   3.97757   4.00937
 Alpha virt. eigenvalues --    4.02788   4.04099   4.05342   4.11159   4.15915
 Alpha virt. eigenvalues --    4.17018   4.18051   4.23457   4.25816   4.26430
 Alpha virt. eigenvalues --    4.29153   4.29652   4.33576   4.36140   4.38552
 Alpha virt. eigenvalues --    4.40588   4.41069   4.42850   4.45236   4.46321
 Alpha virt. eigenvalues --    4.50512   4.50710   4.52636   4.52948   4.57440
 Alpha virt. eigenvalues --    4.58204   4.58975   4.62719   4.64705   4.66301
 Alpha virt. eigenvalues --    4.68606   4.72844   4.75039   4.75552   4.77243
 Alpha virt. eigenvalues --    4.80673   4.86473   4.86615   4.90236   4.94386
 Alpha virt. eigenvalues --    4.95092   5.02390   5.02535   5.04930   5.09532
 Alpha virt. eigenvalues --    5.10663   5.14875   5.21592   5.24157   5.24521
 Alpha virt. eigenvalues --    5.35541   5.40108   5.45961   5.50638   5.51404
 Alpha virt. eigenvalues --    5.54468   5.59257   5.62632   5.64007   5.69301
 Alpha virt. eigenvalues --    5.73351   5.76477   5.81143   5.85262   5.88584
 Alpha virt. eigenvalues --    5.89295   5.92587   6.00029   6.01927   6.09106
 Alpha virt. eigenvalues --    6.10524   6.16279   6.19390   6.22098   6.24924
 Alpha virt. eigenvalues --    6.31995   6.33598   6.40154   6.42104   6.49830
 Alpha virt. eigenvalues --    6.56357   6.60068   6.67432   6.68783   6.71686
 Alpha virt. eigenvalues --    6.77649   6.81402   6.96181   6.98989   7.00693
 Alpha virt. eigenvalues --    7.11678   7.13240   7.19597   7.20596   7.22309
 Alpha virt. eigenvalues --    7.27752   7.29070   7.37306   7.38903   7.50922
 Alpha virt. eigenvalues --    7.53913   7.59034   7.72830   7.82262   7.93989
 Alpha virt. eigenvalues --    7.97911   8.03874   8.24787   8.34623   8.82229
 Alpha virt. eigenvalues --    8.91121   8.94850   9.10630   9.27533   9.86259
 Alpha virt. eigenvalues --   10.43539  10.56178  10.61626  10.87000  11.38997
 Alpha virt. eigenvalues --   11.46462  13.16730  14.80416  39.31826  51.06609
 Alpha virt. eigenvalues --   53.55660
          Condensed to atoms (all electrons):
              1          2          3          4          5          6
     1  C    4.349405   0.444297   0.675537   0.340812  -0.021378  -0.016669
     2  H    0.444297   0.652539  -0.053154  -0.122132   0.007844  -0.001892
     3  O    0.675537  -0.053154   7.819236  -0.086488   0.000185   0.002599
     4  N    0.340812  -0.122132  -0.086488   6.411651   0.364683   0.378376
     5  H   -0.021378   0.007844   0.000185   0.364683   0.470394  -0.029628
     6  H   -0.016669  -0.001892   0.002599   0.378376  -0.029628   0.463951
     7  C    0.002700   0.000467   0.009787  -0.002242   0.002822   0.000090
     8  H    0.000029   0.000010   0.000291  -0.000010   0.000233   0.000001
     9  N   -0.000657  -0.000086  -0.001481  -0.004315  -0.007958   0.000162
    10  H    0.000005   0.000004   0.000039  -0.000150  -0.000199   0.000038
    11  N    0.000461  -0.000093  -0.008912  -0.000066  -0.000294   0.000006
    12  H   -0.008592   0.002264   0.046444  -0.002111   0.001414  -0.000053
    13  H    0.000002  -0.000002  -0.000062  -0.000004  -0.000010   0.000001
              7          8          9         10         11         12
     1  C    0.002700   0.000029  -0.000657   0.000005   0.000461  -0.008592
     2  H    0.000467   0.000010  -0.000086   0.000004  -0.000093   0.002264
     3  O    0.009787   0.000291  -0.001481   0.000039  -0.008912   0.046444
     4  N   -0.002242  -0.000010  -0.004315  -0.000150  -0.000066  -0.002111
     5  H    0.002822   0.000233  -0.007958  -0.000199  -0.000294   0.001414
     6  H    0.000090   0.000001   0.000162   0.000038   0.000006  -0.000053
     7  C    0.006107   0.000226  -0.001724   0.000002  -0.001873  -0.000262
     8  H    0.000226   0.000808  -0.000399   0.000005  -0.000479   0.000187
     9  N   -0.001724  -0.000399   0.001688  -0.000060   0.000411  -0.000342
    10  H    0.000002   0.000005  -0.000060   0.000096  -0.000015  -0.000002
    11  N   -0.001873  -0.000479   0.000411  -0.000015   0.002952  -0.002609
    12  H   -0.000262   0.000187  -0.000342  -0.000002  -0.002609   0.008966
    13  H    0.000153   0.000047  -0.000008   0.000001  -0.000484   0.000238
             13
     1  C    0.000002
     2  H   -0.000002
     3  O   -0.000062
     4  N   -0.000004
     5  H   -0.000010
     6  H    0.000001
     7  C    0.000153
     8  H    0.000047
     9  N   -0.000008
    10  H    0.000001
    11  N   -0.000484
    12  H    0.000238
    13  H    0.000254
 Mulliken atomic charges:
              1
     1  C    0.234049
     2  H    0.069934
     3  O   -0.404021
     4  N   -0.278004
     5  H    0.211894
     6  H    0.203019
     7  C   -0.016254
     8  H   -0.000947
     9  N    0.014769
    10  H    0.000235
    11  N    0.010995
    12  H   -0.045543
    13  H   -0.000126
 Sum of Mulliken atomic charges =   0.00000
 Mulliken charges with hydrogens summed into heavy atoms:
              1
     1  C    0.303982
     3  O   -0.404021
     4  N    0.136909
     7  C   -0.017201
     9  N    0.015005
    11  N   -0.034673
 Sum of Mulliken charges with hydrogens summed into heavy atoms =   0.00000
          Condensed to fragments (all electrons):
     1       0.036870
     2      -0.036870
 Electronic spatial extent (au):  <R**2>=            319.5383
 Charge=              0.0000 electrons
 Dipole moment (field-independent basis, Debye):
    X=             -1.4980    Y=             -4.4848    Z=              0.0000  Tot=              4.7284
 Quadrupole moment (field-independent basis, Debye-Ang):
   XX=            -11.2202   YY=            -18.5311   ZZ=            -18.8813
   XY=              4.6780   XZ=              0.0000   YZ=              0.0000
 Traceless Quadrupole moment (field-independent basis, Debye-Ang):
   XX=              4.9906   YY=             -2.3202   ZZ=             -2.6704
   XY=              4.6780   XZ=              0.0000   YZ=              0.0000
 Octapole moment (field-independent basis, Debye-Ang**2):
  XXX=             56.1231  YYY=            -14.6446  ZZZ=              0.0000  XYY=             24.0653
  XXY=             -9.8458  XXZ=              0.0000  XZZ=             26.7695  YZZ=              0.6075
  YYZ=              0.0000  XYZ=              0.0000
 Hexadecapole moment (field-independent basis, Debye-Ang**3):
 XXXX=           -199.9027 YYYY=           -121.9099 ZZZZ=            -17.0246 XXXY=             17.5324
 XXXZ=              0.0000 YYYX=             14.8803 YYYZ=              0.0000 ZZZX=              0.0000
 ZZZY=              0.0000 XXYY=            -52.1634 XXZZ=            -47.3934 YYZZ=            -26.0969
 XXYZ=              0.0000 YYXZ=              0.0000 ZZXY=             -3.0999
 N-N= 7.013040000057D+01 E-N=-5.380072745738D+02  KE= 1.685311321926D+02
 No NMR shielding tensors so no spin-rotation constants.
 Leave Link  601 at Fri Sep  6 17:06:20 2019, MaxMem= 4294967296 cpu:       2.2
 (Enter /opt/g09gh/gaussian/g09/l701.exe)
 Compute integral first derivatives.
 ... and contract with generalized density number  2.
 Leave Link  701 at Fri Sep  6 17:06:20 2019, MaxMem= 4294967296 cpu:       1.9
 (Enter /opt/g09gh/gaussian/g09/l702.exe)
 L702 exits ... SP integral derivatives will be done elsewhere.
 Leave Link  702 at Fri Sep  6 17:06:20 2019, MaxMem= 4294967296 cpu:       0.1
 (Enter /opt/g09gh/gaussian/g09/l703.exe)
 Compute integral first derivatives, UseDBF=F ICtDFT=           0.
 Integral derivatives from FoFDir, PRISM(SPDF).
 Calling FoFJK, ICntrl=      2127 FMM=F ISym2X=0 I1Cent= 0 IOpClX= 0 NMat=1 NMatS=1 NMatT=0.
 FoFCou: FMM=F IPFlag=           0 FMFlag=      100000 FMFlg1=         800
         NFxFlg=           0 DoJE=F BraDBF=F KetDBF=F FulRan=T
         Omega=  0.000000  0.000000  1.000000  0.000000  0.000000 ICntrl=    2127 IOpCl=  0
         NMat0=    1 NMatS0=    1 NMatT0=    0 NMatD0=    1 NMtDS0=    0 NMtDT0=    0
         I1Cent=           0 NGrid=           0.
 Symmetry not used in FoFCou.
 Leave Link  703 at Fri Sep  6 17:06:34 2019, MaxMem= 4294967296 cpu:     105.4
 (Enter /opt/g09gh/gaussian/g09/l716.exe)
 Dipole        =-4.74259659D-01-1.60575296D+00-9.36299414D-15
 Cartesian Forces:  Max     0.059867163 RMS     0.018306528
 Leave Link  716 at Fri Sep  6 17:06:34 2019, MaxMem= 4294967296 cpu:       0.4
 (Enter /opt/g09gh/gaussian/g09/l122.exe)
 Counterpoise: doing DCBS calculation for fragment   2 NewBq=T
 Leave Link  122 at Fri Sep  6 17:06:34 2019, MaxMem= 4294967296 cpu:       0.0
 (Enter /opt/g09gh/gaussian/g09/l301.exe)
 Basis read from rwf:  (5D, 7F)
 No pseudopotential information found on rwf file.
 Integral buffers will be    131072 words long.
 Raffenetti 1 integral format.
 Two-electron integral symmetry is turned off.
   278 basis functions,   431 primitive gaussians,   315 cartesian basis functions
    12 alpha electrons       12 beta electrons
       nuclear repulsion energy        71.1816793643 Hartrees.
 IExCor=    0 DFT=F Ex=HF Corr=None ExCW=0 ScaHFX=  1.000000
 ScaDFX=  1.000000  1.000000  1.000000  1.000000 ScalE2=  1.000000  1.000000
 IRadAn=      0 IRanWt=     -1 IRanGd=            0 ICorTp=0
 NAtoms=   13 NActive=   13 NUniq=   13 SFac= 7.50D-01 NAtFMM=   80 NAOKFM=F Big=F
 No density basis found on file   718.
 Leave Link  301 at Fri Sep  6 17:06:34 2019, MaxMem= 4294967296 cpu:       0.6
 (Enter /opt/g09gh/gaussian/g09/l302.exe)
 NPDir=0 NMtPBC=     1 NCelOv=     1 NCel=       1 NClECP=     1 NCelD=      1
         NCelK=      1 NCelE2=     1 NClLst=     1 CellRange=     0.0.
 One-electron integrals computed using PRISM.
 NBasis=   278 RedAO= T  NBF=   278
 NBsUse=   278 1.00D-06 NBFU=   278
 Leave Link  302 at Fri Sep  6 17:06:34 2019, MaxMem= 4294967296 cpu:       2.2
 (Enter /opt/g09gh/gaussian/g09/l303.exe)
 DipDrv:  MaxL=1.
 Leave Link  303 at Fri Sep  6 17:06:34 2019, MaxMem= 4294967296 cpu:       0.3
 (Enter /opt/g09gh/gaussian/g09/l401.exe)
 Harris functional with IExCor=  205 diagonalized for initial guess.
 ExpMin= 1.03D-01 ExpMax= 1.53D+04 ExpMxC= 5.22D+02 IAcc=1 IRadAn=         1 AccDes= 0.00D+00
 HarFok:  IExCor=  205 AccDes= 0.00D+00 IRadAn=         1 IDoV= 1
 ScaDFX=  1.000000  1.000000  1.000000  1.000000
 FoFCou: FMM=F IPFlag=           0 FMFlag=      100000 FMFlg1=           0
         NFxFlg=           0 DoJE=T BraDBF=F KetDBF=T FulRan=T
         Omega=  0.000000  0.000000  1.000000  0.000000  0.000000 ICntrl=     500 IOpCl=  0
         NMat0=    1 NMatS0=    1 NMatT0=    0 NMatD0=    1 NMtDS0=    0 NMtDT0=    0
         I1Cent=           4 NGrid=           0.
 Symmetry not used in FoFCou.
 Harris En= -149.370331825297    
 Leave Link  401 at Fri Sep  6 17:06:35 2019, MaxMem= 4294967296 cpu:       3.7
 (Enter /opt/g09gh/gaussian/g09/l502.exe)
 Closed shell SCF:
 Requested convergence on RMS density matrix=1.00D-08 within  64 cycles.
 Requested convergence on MAX density matrix=1.00D-06.
 Requested convergence on             energy=1.00D-06.
 No special actions if energy rises.
 Using DIIS extrapolation, IDIIS=  1040.
 Two-electron integral symmetry not used.
 Keep R1 ints in memory in canonical form, NReq=1254636088.
 IEnd=      307649 IEndB=      307649 NGot=  4294967296 MDV=  3056212049
 LenX=  3056212049 LenY=  3056112383
 Symmetry not used in FoFDir.
 MinBra= 0 MaxBra= 3 Meth= 1.
 IRaf=       0 NMat=   1 IRICut=       1 DoRegI=T DoRafI=F ISym2E= 0 JSym2E=0.

 Cycle   1  Pass 1  IDiag  1:
 E= -148.931153411910    
 DIIS: error= 3.50D-02 at cycle   1 NSaved=   1.
 NSaved= 1 IEnMin= 1 EnMin= -148.931153411910     IErMin= 1 ErrMin= 3.50D-02
 ErrMax= 3.50D-02 EMaxC= 1.00D-01 BMatC= 3.52D-01 BMatP= 3.52D-01
 IDIUse=3 WtCom= 6.50D-01 WtEn= 3.50D-01
 Coeff-Com:  0.100D+01
 Coeff-En:   0.100D+01
 Coeff:      0.100D+01
 Gap=     0.558 Goal=   None    Shift=    0.000
 GapD=    0.558 DampG=2.000 DampE=0.500 DampFc=1.0000 IDamp=-1.
 RMSDP=1.69D-03 MaxDP=8.77D-02              OVMax= 1.68D-01

 Cycle   2  Pass 1  IDiag  1:
 E= -149.077013131922     Delta-E=       -0.145859720011 Rises=F Damp=F
 DIIS: error= 1.34D-02 at cycle   2 NSaved=   2.
 NSaved= 2 IEnMin= 2 EnMin= -149.077013131922     IErMin= 2 ErrMin= 1.34D-02
 ErrMax= 1.34D-02 EMaxC= 1.00D-01 BMatC= 5.72D-02 BMatP= 3.52D-01
 IDIUse=3 WtCom= 8.66D-01 WtEn= 1.34D-01
 Coeff-Com:  0.232D+00 0.768D+00
 Coeff-En:   0.000D+00 0.100D+01
 Coeff:      0.201D+00 0.799D+00
 Gap=     0.494 Goal=   None    Shift=    0.000
 RMSDP=9.00D-04 MaxDP=5.49D-02 DE=-1.46D-01 OVMax= 7.26D-02

 Cycle   3  Pass 1  IDiag  1:
 E= -149.118753979356     Delta-E=       -0.041740847434 Rises=F Damp=F
 DIIS: error= 4.34D-03 at cycle   3 NSaved=   3.
 NSaved= 3 IEnMin= 3 EnMin= -149.118753979356     IErMin= 3 ErrMin= 4.34D-03
 ErrMax= 4.34D-03 EMaxC= 1.00D-01 BMatC= 5.19D-03 BMatP= 5.72D-02
 IDIUse=3 WtCom= 9.57D-01 WtEn= 4.34D-02
 Coeff-Com: -0.210D-01 0.197D+00 0.824D+00
 Coeff-En:   0.000D+00 0.000D+00 0.100D+01
 Coeff:     -0.201D-01 0.188D+00 0.832D+00
 Gap=     0.469 Goal=   None    Shift=    0.000
 RMSDP=1.51D-04 MaxDP=8.53D-03 DE=-4.17D-02 OVMax= 2.87D-02

 Cycle   4  Pass 1  IDiag  1:
 E= -149.122769737865     Delta-E=       -0.004015758509 Rises=F Damp=F
 DIIS: error= 1.15D-03 at cycle   4 NSaved=   4.
 NSaved= 4 IEnMin= 4 EnMin= -149.122769737865     IErMin= 4 ErrMin= 1.15D-03
 ErrMax= 1.15D-03 EMaxC= 1.00D-01 BMatC= 2.95D-04 BMatP= 5.19D-03
 IDIUse=3 WtCom= 9.89D-01 WtEn= 1.15D-02
 Coeff-Com: -0.127D-01 0.428D-01 0.274D+00 0.696D+00
 Coeff-En:   0.000D+00 0.000D+00 0.000D+00 0.100D+01
 Coeff:     -0.125D-01 0.423D-01 0.271D+00 0.699D+00
 Gap=     0.467 Goal=   None    Shift=    0.000
 RMSDP=5.06D-05 MaxDP=2.38D-03 DE=-4.02D-03 OVMax= 4.79D-03

 Cycle   5  Pass 1  IDiag  1:
 E= -149.123057322417     Delta-E=       -0.000287584552 Rises=F Damp=F
 DIIS: error= 5.28D-04 at cycle   5 NSaved=   5.
 NSaved= 5 IEnMin= 5 EnMin= -149.123057322417     IErMin= 5 ErrMin= 5.28D-04
 ErrMax= 5.28D-04 EMaxC= 1.00D-01 BMatC= 1.74D-05 BMatP= 2.95D-04
 IDIUse=3 WtCom= 9.95D-01 WtEn= 5.28D-03
 Coeff-Com:  0.388D-02-0.263D-01-0.131D+00-0.947D-01 0.125D+01
 Coeff-En:   0.000D+00 0.000D+00 0.000D+00 0.000D+00 0.100D+01
 Coeff:      0.386D-02-0.262D-01-0.130D+00-0.942D-01 0.125D+01
 Gap=     0.468 Goal=   None    Shift=    0.000
 RMSDP=3.07D-05 MaxDP=1.19D-03 DE=-2.88D-04 OVMax= 4.39D-03

 Cycle   6  Pass 1  IDiag  1:
 E= -149.123109353874     Delta-E=       -0.000052031457 Rises=F Damp=F
 DIIS: error= 1.04D-04 at cycle   6 NSaved=   6.
 NSaved= 6 IEnMin= 6 EnMin= -149.123109353874     IErMin= 6 ErrMin= 1.04D-04
 ErrMax= 1.04D-04 EMaxC= 1.00D-01 BMatC= 2.15D-06 BMatP= 1.74D-05
 IDIUse=3 WtCom= 9.99D-01 WtEn= 1.04D-03
 Coeff-Com:  0.922D-03-0.393D-02-0.186D-01-0.776D-01 0.120D-01 0.109D+01
 Coeff-En:   0.000D+00 0.000D+00 0.000D+00 0.000D+00 0.000D+00 0.100D+01
 Coeff:      0.921D-03-0.392D-02-0.186D-01-0.775D-01 0.119D-01 0.109D+01
 Gap=     0.468 Goal=   None    Shift=    0.000
 RMSDP=9.99D-06 MaxDP=3.67D-04 DE=-5.20D-05 OVMax= 1.25D-03

 Cycle   7  Pass 1  IDiag  1:
 E= -149.123114621094     Delta-E=       -0.000005267220 Rises=F Damp=F
 DIIS: error= 5.38D-05 at cycle   7 NSaved=   7.
 NSaved= 7 IEnMin= 7 EnMin= -149.123114621094     IErMin= 7 ErrMin= 5.38D-05
 ErrMax= 5.38D-05 EMaxC= 1.00D-01 BMatC= 3.04D-07 BMatP= 2.15D-06
 IDIUse=1 WtCom= 1.00D+00 WtEn= 0.00D+00
 Coeff-Com: -0.397D-03 0.311D-02 0.173D-01-0.390D-02-0.143D+00 0.114D+00
 Coeff-Com:  0.101D+01
 Coeff:     -0.397D-03 0.311D-02 0.173D-01-0.390D-02-0.143D+00 0.114D+00
 Coeff:      0.101D+01
 Gap=     0.468 Goal=   None    Shift=    0.000
 RMSDP=3.08D-06 MaxDP=1.21D-04 DE=-5.27D-06 OVMax= 5.40D-04

 Cycle   8  Pass 1  IDiag  1:
 E= -149.123115333504     Delta-E=       -0.000000712410 Rises=F Damp=F
 DIIS: error= 1.62D-05 at cycle   8 NSaved=   8.
 NSaved= 8 IEnMin= 8 EnMin= -149.123115333504     IErMin= 8 ErrMin= 1.62D-05
 ErrMax= 1.62D-05 EMaxC= 1.00D-01 BMatC= 3.82D-08 BMatP= 3.04D-07
 IDIUse=1 WtCom= 1.00D+00 WtEn= 0.00D+00
 Coeff-Com: -0.117D-03 0.484D-03 0.235D-02 0.567D-02 0.766D-02-0.146D+00
 Coeff-Com: -0.830D-01 0.121D+01
 Coeff:     -0.117D-03 0.484D-03 0.235D-02 0.567D-02 0.766D-02-0.146D+00
 Coeff:     -0.830D-01 0.121D+01
 Gap=     0.468 Goal=   None    Shift=    0.000
 RMSDP=1.38D-06 MaxDP=5.93D-05 DE=-7.12D-07 OVMax= 2.58D-04

 Cycle   9  Pass 1  IDiag  1:
 E= -149.123115451218     Delta-E=       -0.000000117714 Rises=F Damp=F
 DIIS: error= 3.86D-06 at cycle   9 NSaved=   9.
 NSaved= 9 IEnMin= 9 EnMin= -149.123115451218     IErMin= 9 ErrMin= 3.86D-06
 ErrMax= 3.86D-06 EMaxC= 1.00D-01 BMatC= 3.87D-09 BMatP= 3.82D-08
 IDIUse=1 WtCom= 1.00D+00 WtEn= 0.00D+00
 Coeff-Com:  0.685D-04-0.457D-03-0.230D-02-0.258D-02 0.165D-01 0.229D-01
 Coeff-Com: -0.104D+00-0.233D+00 0.130D+01
 Coeff:      0.685D-04-0.457D-03-0.230D-02-0.258D-02 0.165D-01 0.229D-01
 Coeff:     -0.104D+00-0.233D+00 0.130D+01
 Gap=     0.468 Goal=   None    Shift=    0.000
 RMSDP=4.54D-07 MaxDP=2.43D-05 DE=-1.18D-07 OVMax= 7.81D-05

 Cycle  10  Pass 1  IDiag  1:
 E= -149.123115463354     Delta-E=       -0.000000012136 Rises=F Damp=F
 DIIS: error= 1.42D-06 at cycle  10 NSaved=  10.
 NSaved=10 IEnMin=10 EnMin= -149.123115463354     IErMin=10 ErrMin= 1.42D-06
 ErrMax= 1.42D-06 EMaxC= 1.00D-01 BMatC= 3.11D-10 BMatP= 3.87D-09
 IDIUse=1 WtCom= 1.00D+00 WtEn= 0.00D+00
 Coeff-Com:  0.129D-05 0.123D-04 0.209D-03-0.518D-03-0.348D-02 0.126D-01
 Coeff-Com:  0.260D-01-0.751D-01-0.290D+00 0.133D+01
 Coeff:      0.129D-05 0.123D-04 0.209D-03-0.518D-03-0.348D-02 0.126D-01
 Coeff:      0.260D-01-0.751D-01-0.290D+00 0.133D+01
 Gap=     0.468 Goal=   None    Shift=    0.000
 RMSDP=1.59D-07 MaxDP=1.06D-05 DE=-1.21D-08 OVMax= 1.85D-05

 Cycle  11  Pass 1  IDiag  1:
 E= -149.123115464281     Delta-E=       -0.000000000927 Rises=F Damp=F
 DIIS: error= 1.51D-07 at cycle  11 NSaved=  11.
 NSaved=11 IEnMin=11 EnMin= -149.123115464281     IErMin=11 ErrMin= 1.51D-07
 ErrMax= 1.51D-07 EMaxC= 1.00D-01 BMatC= 6.10D-12 BMatP= 3.11D-10
 IDIUse=1 WtCom= 1.00D+00 WtEn= 0.00D+00
 Coeff-Com: -0.233D-05 0.137D-04 0.388D-04 0.187D-03 0.433D-04-0.294D-02
 Coeff-Com: -0.296D-02 0.262D-01 0.753D-02-0.267D+00 0.124D+01
[...]
         NMat0=    1 NMatS0=    1 NMatT0=    0 NMatD0=    1 NMtDS0=    0 NMtDT0=    0
         I1Cent=           0 NGrid=           0.
 Symmetry not used in FoFCou.
 Leave Link  703 at Fri Sep  6 19:57:40 2019, MaxMem= 4294967296 cpu:      15.2
 (Enter /opt/g09gh/gaussian/g09/l716.exe)
 Dipole        = 7.13451759D-01 8.77970465D-01-6.65144294D-06
 Cartesian Forces:  Max     0.024519239 RMS     0.005722797
 Leave Link  716 at Fri Sep  6 19:57:40 2019, MaxMem= 4294967296 cpu:       0.2
 (Enter /opt/g09gh/gaussian/g09/l122.exe)
 Restoring MOs from calculation   1 to rwf.
 Counterpoise: corrected energy =    -319.348509558860
 Counterpoise: BSSE energy =       0.003939291377
 Leave Link  122 at Fri Sep  6 19:57:41 2019, MaxMem= 4294967296 cpu:       0.0
 (Enter /opt/g09gh/gaussian/g09/l716.exe)
 Dipole        = 4.11925423D-01-6.21143737D-01-9.55904185D-06
 -------------------------------------------------------------------
 Center     Atomic                   Forces (Hartrees/Bohr)
 Number     Number              X              Y              Z
 -------------------------------------------------------------------
      1        6           0.000001866    0.000001785   -0.000005490
      2        1          -0.000000053   -0.000000498    0.000001819
      3        8          -0.000001473    0.000001350    0.000002105
      4        7           0.000002685   -0.000004718    0.000001151
      5        1           0.000002109    0.000003842    0.000000060
      6        1          -0.000001232    0.000000821    0.000000362
      7        6          -0.000002142   -0.000005056   -0.000001057
      8        1           0.000000464    0.000000928    0.000000213
      9        7           0.000000232   -0.000000061    0.000000025
     10        1          -0.000000300    0.000000330    0.000000337
     11        7          -0.000003369    0.000003105    0.000000358
     12        1           0.000000254   -0.000001131   -0.000000003
     13        1           0.000000958   -0.000000695    0.000000118
 -------------------------------------------------------------------
 Cartesian Forces:  Max     0.000005490 RMS     0.000002011
 Leave Link  716 at Fri Sep  6 19:57:41 2019, MaxMem= 4294967296 cpu:       0.1
 (Enter /opt/g09gh/gaussian/g09/l103.exe)

 GradGradGradGradGradGradGradGradGradGradGradGradGradGradGradGradGradGrad
 Berny optimization.
 Using GEDIIS/GDIIS optimizer.
 Internal  Forces:  Max     0.000003459 RMS     0.000001291
 Search for a local minimum.
 Step number  16 out of a maximum of   62
 All quantities printed in internal units (Hartrees-Bohrs-Radians)
 RMS Force = .12913D-05 SwitMx=.10000D-02 MixMth= 2
 Mixed Optimization -- En-DIIS/RFO-DIIS
 Swaping is turned off.
 Update second derivatives using D2CorX and points    4    5    6    7    8
                                                      9   10   11   12   13
                                                     14   15   16
 DE=  8.26D-10 DEPred=-2.98D-09 R=-2.77D-01
 Trust test=-2.77D-01 RLast= 5.54D-04 DXMaxT set to 5.45D-01
     Eigenvalues ---    0.00236   0.00489   0.01109   0.01435   0.01596
     Eigenvalues ---    0.01652   0.01860   0.02040   0.02488   0.02741
     Eigenvalues ---    0.02986   0.03134   0.04683   0.06584   0.13942
     Eigenvalues ---    0.15281   0.16008   0.16027   0.16082   0.18624
     Eigenvalues ---    0.19216   0.26490   0.31290   0.32459   0.38605
     Eigenvalues ---    0.44400   0.45200   0.45905   0.46592   0.55903
     Eigenvalues ---    0.57696   0.66024   0.853591000.000001000.00000
     Eigenvalues --- 1000.000001000.000001000.000001000.000001000.00000
     Eigenvalues --- 1000.000001000.000001000.000001000.000001000.00000
     Eigenvalues --- 1000.000001000.000001000.000001000.000001000.00000
     Eigenvalues --- 1000.000001000.00000
 En-DIIS/RFO-DIIS IScMMF=        0 using points:    16   15   14   13   12
 RFO step:  Lambda= 0.00000000D+00.
 DIIS coeffs:      0.92341      0.27213     -0.44190      0.33356     -0.08721
 Iteration  1 RMS(Cart)=  0.00002150 RMS(Int)=  0.00000000
 Iteration  2 RMS(Cart)=  0.00000000 RMS(Int)=  0.00000000
 Variable       Old X    -DE/DX   Delta X   Delta X   Delta X     New X
                                  (DIIS)     (GDIIS)  (Total)
    R1        2.07777   0.00000   0.00000   0.00000   0.00000   2.07777
    R2        2.31972   0.00000   0.00000   0.00000   0.00000   2.31972
    R3        2.53420   0.00000   0.00000   0.00000   0.00000   2.53420
    R4        3.59204   0.00000  -0.00004   0.00000  -0.00005   3.59199
    R5        1.94192   0.00000   0.00000   0.00000   0.00000   1.94192
    R6        1.89424   0.00000   0.00000   0.00000   0.00000   1.89424
    R7        3.62677   0.00000  -0.00004  -0.00003  -0.00007   3.62670
    R8        2.06023   0.00000   0.00000   0.00000   0.00000   2.06024
    R9        2.43680   0.00000  -0.00001   0.00000  -0.00001   2.43679
   R10        2.54391   0.00000   0.00000   0.00001   0.00000   2.54392
   R11        1.91422   0.00000   0.00000   0.00000   0.00000   1.91422
   R12        1.92327   0.00000   0.00000   0.00000   0.00000   1.92327
   R13        1.88931   0.00000   0.00000   0.00000   0.00000   1.88931
    A1        2.11434   0.00000   0.00000   0.00000   0.00000   2.11433
    A2        1.97798   0.00000  -0.00001   0.00000  -0.00001   1.97797
    A3        2.19086   0.00000   0.00001   0.00000   0.00001   2.19088
    A4        2.09356   0.00000  -0.00001  -0.00002  -0.00002   2.09354
    A5        2.11061   0.00000   0.00001   0.00001   0.00002   2.11063
    A6        2.07517   0.00000   0.00000  -0.00002  -0.00002   2.07516
    A7        2.09740   0.00000  -0.00001   0.00001   0.00000   2.09740
    A8        3.02266   0.00000  -0.00002   0.00001  -0.00001   3.02265
    A9        2.15028   0.00000  -0.00001   0.00001   0.00000   2.15028
   A10        1.98519   0.00000   0.00000  -0.00001  -0.00001   1.98518
   A11        2.14772   0.00000   0.00000   0.00000   0.00001   2.14772
   A12        2.10041   0.00000   0.00000  -0.00001  -0.00001   2.10040
   A13        2.27841   0.00000   0.00000   0.00000   0.00000   2.27841
   A14        1.90437   0.00000   0.00000   0.00001   0.00001   1.90438
   A15        2.10899   0.00000   0.00001   0.00000   0.00001   2.10900
   A16        2.08761   0.00000  -0.00001  -0.00001  -0.00001   2.08760
   A17        2.08658   0.00000   0.00000   0.00001   0.00001   2.08659
   A18        3.07474   0.00000  -0.00001   0.00001   0.00000   3.07474
    D1       -3.14157   0.00000  -0.00001  -0.00002  -0.00003   3.14158
    D2       -0.00002   0.00000   0.00001   0.00002   0.00003   0.00001
    D3        3.14157   0.00000   0.00001   0.00002   0.00003  -3.14158
    D4       -0.00001   0.00000   0.00001   0.00001   0.00002   0.00001
    D5        0.00002   0.00000  -0.00001  -0.00002  -0.00003  -0.00001
    D6       -3.14157   0.00000  -0.00001  -0.00003  -0.00004   3.14158
    D7        0.00001   0.00000   0.00000  -0.00001  -0.00001   0.00000
    D8        0.00000   0.00000   0.00000   0.00000   0.00000   0.00000
    D9        3.14159   0.00000   0.00000   0.00001   0.00001  -3.14159
   D10       -0.00001   0.00000   0.00000   0.00001   0.00001   0.00000
   D11       -3.14159   0.00000   0.00000   0.00000   0.00000  -3.14159
   D12       -3.14159   0.00000   0.00000   0.00000  -0.00001   3.14159
   D13        0.00000   0.00000   0.00000   0.00000   0.00000   0.00000
   D14        0.00000   0.00000   0.00000   0.00000   0.00001   0.00000
   D15        3.14158   0.00000   0.00001   0.00001   0.00001  -3.14159
   D16        3.14159   0.00000   0.00000   0.00000   0.00001  -3.14159
   D17        0.00000   0.00000   0.00000   0.00000   0.00000   0.00000
   D18        0.00000   0.00000   0.00000   0.00000  -0.00001   0.00000
   D19       -3.14159   0.00000   0.00000   0.00000  -0.00001   3.14159
   D20        0.00000   0.00000   0.00000   0.00000   0.00000   0.00000
   D21       -3.14159   0.00000   0.00000   0.00000   0.00000   3.14159
         Item               Value     Threshold  Converged?
 Maximum Force            0.000003     0.000015     YES
 RMS     Force            0.000001     0.000010     YES
 Maximum Displacement     0.000055     0.000060     YES
 RMS     Displacement     0.000022     0.000040     YES
 Predicted change in Energy=-3.935875D-10
 Optimization completed.
    -- Stationary point found.
                           ----------------------------
                           !   Optimized Parameters   !
                           ! (Angstroms and Degrees)  !
 --------------------------                            --------------------------
 ! Name  Definition              Value          Derivative Info.                !
 --------------------------------------------------------------------------------
 ! R1    R(1,2)                  1.0995         -DE/DX =    0.0                 !
 ! R2    R(1,3)                  1.2275         -DE/DX =    0.0                 !
 ! R3    R(1,4)                  1.341          -DE/DX =    0.0                 !
 ! R4    R(3,12)                 1.9008         -DE/DX =    0.0                 !
 ! R5    R(4,5)                  1.0276         -DE/DX =    0.0                 !
 ! R6    R(4,6)                  1.0024         -DE/DX =    0.0                 !
 ! R7    R(5,9)                  1.9192         -DE/DX =    0.0                 !
 ! R8    R(7,8)                  1.0902         -DE/DX =    0.0                 !
 ! R9    R(7,9)                  1.2895         -DE/DX =    0.0                 !
 ! R10   R(7,11)                 1.3462         -DE/DX =    0.0                 !
 ! R11   R(9,10)                 1.013          -DE/DX =    0.0                 !
 ! R12   R(11,12)                1.0178         -DE/DX =    0.0                 !
 ! R13   R(11,13)                0.9998         -DE/DX =    0.0                 !
 ! A1    A(2,1,3)              121.1425         -DE/DX =    0.0                 !
 ! A2    A(2,1,4)              113.3302         -DE/DX =    0.0                 !
 ! A3    A(3,1,4)              125.5273         -DE/DX =    0.0                 !
 ! A4    A(1,3,12)             119.9522         -DE/DX =    0.0                 !
 ! A5    A(1,4,5)              120.9293         -DE/DX =    0.0                 !
 ! A6    A(1,4,6)              118.8987         -DE/DX =    0.0                 !
 ! A7    A(5,4,6)              120.172          -DE/DX =    0.0                 !
 ! A8    A(4,5,9)              173.1855         -DE/DX =    0.0                 !
 ! A9    A(8,7,9)              123.2017         -DE/DX =    0.0                 !
 ! A10   A(8,7,11)             113.7431         -DE/DX =    0.0                 !
 ! A11   A(9,7,11)             123.0552         -DE/DX =    0.0                 !
 ! A12   A(5,9,7)              120.3444         -DE/DX =    0.0                 !
 ! A13   A(5,9,10)             130.5433         -DE/DX =    0.0                 !
 ! A14   A(7,9,10)             109.1123         -DE/DX =    0.0                 !
 ! A15   A(7,11,12)            120.8365         -DE/DX =    0.0                 !
 ! A16   A(7,11,13)            119.6112         -DE/DX =    0.0                 !
 ! A17   A(12,11,13)           119.5524         -DE/DX =    0.0                 !
 ! A18   A(3,12,11)            176.1696         -DE/DX =    0.0                 !
 ! D1    D(2,1,3,12)           180.0013         -DE/DX =    0.0                 !
 ! D2    D(4,1,3,12)            -0.0013         -DE/DX =    0.0                 !
 ! D3    D(2,1,4,5)           -180.0012         -DE/DX =    0.0                 !
 ! D4    D(2,1,4,6)             -0.0008         -DE/DX =    0.0                 !
 ! D5    D(3,1,4,5)              0.0012         -DE/DX =    0.0                 !
 ! D6    D(3,1,4,6)            180.0015         -DE/DX =    0.0                 !
 ! D7    D(1,3,12,11)            0.0004         -DE/DX =    0.0                 !
 ! D8    D(1,4,5,9)              0.0            -DE/DX =    0.0                 !
 ! D9    D(6,4,5,9)           -180.0003         -DE/DX =    0.0                 !
 ! D10   D(4,5,9,7)             -0.0004         -DE/DX =    0.0                 !
 ! D11   D(4,5,9,10)          -180.0            -DE/DX =    0.0                 !
 ! D12   D(8,7,9,5)            180.0002         -DE/DX =    0.0                 !
 ! D13   D(8,7,9,10)            -0.0001         -DE/DX =    0.0                 !
 ! D14   D(11,7,9,5)            -0.0003         -DE/DX =    0.0                 !
 ! D15   D(11,7,9,10)         -180.0006         -DE/DX =    0.0                 !
 ! D16   D(8,7,11,12)         -180.0002         -DE/DX =    0.0                 !
 ! D17   D(8,7,11,13)           -0.0001         -DE/DX =    0.0                 !
 ! D18   D(9,7,11,12)            0.0002         -DE/DX =    0.0                 !
 ! D19   D(9,7,11,13)          180.0004         -DE/DX =    0.0                 !
 ! D20   D(7,11,12,3)            0.0001         -DE/DX =    0.0                 !
 ! D21   D(13,11,12,3)         180.0            -DE/DX =    0.0                 !
 --------------------------------------------------------------------------------
 GradGradGradGradGradGradGradGradGradGradGradGradGradGradGradGradGradGrad

 Largest change from initial coordinates is atom    1       0.061 Angstoms.
 Leave Link  103 at Fri Sep  6 19:57:41 2019, MaxMem= 4294967296 cpu:       0.1
 (Enter /opt/g09gh/gaussian/g09/l202.exe)
                          Input orientation:                          
 ---------------------------------------------------------------------
 Center     Atomic      Atomic             Coordinates (Angstroms)
 Number     Number       Type             X           Y           Z
 ---------------------------------------------------------------------
      1          6           0       -2.048269    0.282885    0.000013
      2          1           0       -3.145783    0.349113   -0.000008
      3          8           0       -1.351291    1.293372   -0.000001
      4          7           0       -1.592315   -0.978263    0.000004
      5          1           0       -0.583753   -1.175265    0.000003
      6          1           0       -2.252899   -1.732196   -0.000007
      7          6           0        2.062108   -0.255432    0.000004
      8          1           0        3.152020   -0.281700    0.000000
      9          7           0        1.330202   -1.317091    0.000002
     10          1           0        1.929967   -2.133410   -0.000004
     11          7           0        1.549933    0.989510    0.000000
     12          1           0        0.543293    1.139486   -0.000001
     13          1           0        2.165820    1.777063   -0.000005
 ---------------------------------------------------------------------
                    Distance matrix (angstroms):
                    1          2          3          4          5
     1  C    0.000000
     2  H    1.099510   0.000000
     3  O    1.227543   2.027763   0.000000
     4  N    1.341040   2.043328   2.284386   0.000000
     5  H    2.066642   2.981229   2.585205   1.027622   0.000000
     6  H    2.025444   2.264749   3.157049   1.002390   1.759608
     7  C    4.145478   5.242862   3.748344   3.725224   2.801192
     8  H    5.230848   6.329317   4.770814   4.795197   3.841154
     9  N    3.738180   4.776052   3.742315   2.942093   1.919203
    10  H    4.654551   5.650323   4.744416   3.706863   2.690136
    11  N    3.666931   4.739183   2.917094   3.707540   3.039551
    12  H    2.729461   3.772793   1.900823   3.007604   2.574549
    13  H    4.471143   5.500196   3.550215   4.659978   4.034401
                    6          7          8          9         10
     6  H    0.000000
     7  C    4.560715   0.000000
     8  H    5.596168   1.090229   0.000000
     9  N    3.607066   1.289499   2.095485   0.000000
    10  H    4.202064   1.882622   2.218614   1.012964   0.000000
    11  N    4.676453   1.346181   2.045155   2.317043   3.145958
    12  H    4.008147   2.062182   2.970729   2.579534   3.554534
    13  H    5.642692   2.035139   2.282782   3.205003   3.917579
                   11         12         13
    11  N    0.000000
    12  H    1.017751   0.000000
    13  H    0.999778   1.743301   0.000000
 Symmetry turned off by external request.
 Stoichiometry    C2H7N3O
 Framework group  C1[X(C2H7N3O)]
 Deg. of freedom    33
 Full point group                 C1      NOp   1
 Rotational constants (GHZ):      5.5337455      1.9365831      1.4345498
 Leave Link  202 at Fri Sep  6 19:57:42 2019, MaxMem= 4294967296 cpu:       0.1
 (Enter /opt/g09gh/gaussian/g09/l601.exe)
 Copying SCF densities to generalized density rwf, IOpCl= 0 IROHF=0.

 **********************************************************************

            Population analysis using the SCF density.

 **********************************************************************

 Electronic spatial extent (au):  <R**2>=            783.9573
 Charge=              0.0000 electrons
 Dipole moment (field-independent basis, Debye):
    X=              0.9918    Y=             -1.6897    Z=              0.0000  Tot=              1.9593
 Quadrupole moment (field-independent basis, Debye-Ang):
   XX=            -20.3249   YY=            -35.1933   ZZ=            -39.5219
   XY=              6.6649   XZ=              0.0000   YZ=              0.0001
 Traceless Quadrupole moment (field-independent basis, Debye-Ang):
   XX=             11.3551   YY=             -3.5133   ZZ=             -7.8418
   XY=              6.6649   XZ=              0.0000   YZ=              0.0001
 Octapole moment (field-independent basis, Debye-Ang**2):
  XXX=              0.0891  YYY=             -6.2334  ZZZ=             -0.0003  XYY=              9.3320
  XXY=             -7.1944  XXZ=             -0.0003  XZZ=             -2.7374  YZZ=              2.6075
  YYZ=             -0.0003  XYZ=             -0.0001
 Hexadecapole moment (field-independent basis, Debye-Ang**3):
 XXXX=           -539.9141 YYYY=           -233.2342 ZZZZ=            -37.2238 XXXY=             40.2271
 XXXZ=              0.0005 YYYX=             47.0523 YYYZ=              0.0002 ZZZX=              0.0003
 ZZZY=              0.0001 XXYY=           -127.7290 XXZZ=           -130.0654 YYZZ=            -55.1400
 XXYZ=              0.0002 YYXZ=              0.0001 ZZXY=              5.6016
 No NMR shielding tensors so no spin-rotation constants.
 Leave Link  601 at Fri Sep  6 19:57:42 2019, MaxMem= 4294967296 cpu:       3.7
 (Enter /opt/g09gh/gaussian/g09/l9999.exe)

 Test job not archived.
 1\1\GINC-NODE35\FOpt\RMP2-FC\CC-pVTZ\C2H7N3O1\XY3866\06-Sep-2019\0\\#p
  MP2/cc-pvtz counterpoise=2 IOP(5/13=1) scf=tight Symmetry=None MaxDis
 k=100GB Opt=tight\\Opt=tight\\0,1\C,-2.0482694365,0.2828850302,0.00001
 26349\H,-3.1457826029,0.3491134427,-0.0000083331\O,-1.3512910394,1.293
 3720048,-0.000000627\N,-1.5923149181,-0.9782631796,0.0000040239\H,-0.5
 837532402,-1.1752649493,0.0000028723\H,-2.2528994655,-1.7321955039,-0.
 0000069304\C,2.0621079654,-0.2554315452,0.0000036477\H,3.1520204336,-0
 .2816997306,-0.0000003668\N,1.330201901,-1.3170906351,0.0000024753\H,1
 .9299666174,-2.1334100842,-0.0000040254\N,1.5499332733,0.9895098861,-0
 .0000001737\H,0.5432926921,1.1394858524,-0.0000005705\H,2.1658199197,1
 .7770627117,-0.0000046272\\Version=EM64L-G09RevA.02\HF=-149.1391754\MP
 2=-149.7206537\RMSD=5.308e-09\RMSF=2.011e-06\Dipole=0.3902191,-0.66476
 4,-0.0000059\Quadrupole=8.4422474,-2.612039,-5.8302084,4.9552144,-0.00
 00136,0.0000386\PG=C01 [X(C2H7N3O1)]\\@


 BETTER TO HUNT IN FIELDS, FOR HEALTH UNBOUGHT
 THAN FEE THE DOCTOR FOR A NAUSEOUS DRAUGHT.
 THE WISE, FOR CURE, ON EXERCISE DEPEND;
 GOD NEVER MADE HIS WORK FOR MAN TO MEND.
     -- JOHN DRYDEN (1631-1700)
 Job cpu time:  0 days 23 hours 39 minutes 14.3 seconds.
 File lengths (MBytes):  RWF=     52 Int=      0 D2E=      0 Chk=     14 Scr=      1
 Normal termination of Gaussian 09 at Fri Sep  6 19:57:44 2019.
