 Entering Gaussian System, Link 0=g09
 Input=formicacid_formicacid_dimer.com
 Output=formicacid_formicacid_dimer.out
 Initial command:
 /opt/g09gh/gaussian/g09/l1.exe /scratch/xy3866/Gau-1184.inp -scrdir=/scratch/xy3866/
 Entering Link 1 = /opt/g09gh/gaussian/g09/l1.exe PID=      1185.
  
 Copyright (c) 1988,1990,1992,1993,1995,1998,2003,2009, Gaussian, Inc.
                  All Rights Reserved.
  
 This is part of the Gaussian(R) 09 program.  It is based on
 the Gaussian(R) 03 system (copyright 2003, Gaussian, Inc.),
 the Gaussian(R) 98 system (copyright 1998, Gaussian, Inc.),
 the Gaussian(R) 94 system (copyright 1995, Gaussian, Inc.),
 the Gaussian 92(TM) system (copyright 1992, Gaussian, Inc.),
 the Gaussian 90(TM) system (copyright 1990, Gaussian, Inc.),
 the Gaussian 88(TM) system (copyright 1988, Gaussian, Inc.),
 the Gaussian 86(TM) system (copyright 1986, Carnegie Mellon
 University), and the Gaussian 82(TM) system (copyright 1983,
 Carnegie Mellon University). Gaussian is a federally registered
 trademark of Gaussian, Inc.
  
 This software contains proprietary and confidential information,
 including trade secrets, belonging to Gaussian, Inc.
  
 This software is provided under written license and may be
 used, copied, transmitted, or stored only in accord with that
 written license.
  
 The following legend is applicable only to US Government
 contracts under FAR:
  
                    RESTRICTED RIGHTS LEGEND
  
 Use, reproduction and disclosure by the US Government is
 subject to restrictions as set forth in subparagraphs (a)
 and (c) of the Commercial Computer Software - Restricted
 Rights clause in FAR 52.227-19.
  
 Gaussian, Inc.
 340 Quinnipiac St., Bldg. 40, Wallingford CT 06492
  
  
 ---------------------------------------------------------------
 Warning -- This program may not be used in any manner that
 competes with the business of Gaussian, Inc. or will provide
 assistance to any competitor of Gaussian, Inc.  The licensee
 of this program is prohibited from giving any competitor of
 Gaussian, Inc. access to this program.  By using this program,
 the user acknowledges that Gaussian, Inc. is engaged in the
 business of creating and licensing software in the field of
 computational chemistry and represents and warrants to the
 licensee that it is not a competitor of Gaussian, Inc. and that
 it will not use this program in any manner prohibited above.
 ---------------------------------------------------------------
  

 Cite this work as:
 Gaussian 09, Revision A.02,
 M. J. Frisch, G. W. Trucks, H. B. Schlegel, G. E. Scuseria, 
 M. A. Robb, J. R. Cheeseman, G. Scalmani, V. Barone, B. Mennucci, 
 G. A. Petersson, H. Nakatsuji, M. Caricato, X. Li, H. P. Hratchian, 
 A. F. Izmaylov, J. Bloino, G. Zheng, J. L. Sonnenberg, M. Hada, 
 M. Ehara, K. Toyota, R. Fukuda, J. Hasegawa, M. Ishida, T. Nakajima, 
 Y. Honda, O. Kitao, H. Nakai, T. Vreven, J. A. Montgomery, Jr., 
 J. E. Peralta, F. Ogliaro, M. Bearpark, J. J. Heyd, E. Brothers, 
 K. N. Kudin, V. N. Staroverov, R. Kobayashi, J. Normand, 
 K. Raghavachari, A. Rendell, J. C. Burant, S. S. Iyengar, J. Tomasi, 
 M. Cossi, N. Rega, J. M. Millam, M. Klene, J. E. Knox, J. B. Cross, 
 V. Bakken, C. Adamo, J. Jaramillo, R. Gomperts, R. E. Stratmann, 
 O. Yazyev, A. J. Austin, R. Cammi, C. Pomelli, J. W. Ochterski, 
 R. L. Martin, K. Morokuma, V. G. Zakrzewski, G. A. Voth, 
 P. Salvador, J. J. Dannenberg, S. Dapprich, A. D. Daniels, 
 O. Farkas, J. B. Foresman, J. V. Ortiz, J. Cioslowski, 
 and D. J. Fox, Gaussian, Inc., Wallingford CT, 2009.
 
 ******************************************
 Gaussian 09:  EM64L-G09RevA.02 11-Jun-2009
                 6-Sep-2019 
 ******************************************
 %NoSave
 %chk=formicacid_formicacid_dimer.chk
 %nproc=8
 Will use up to    8 processors via shared memory.
 %Mem=32GB
 ----------------------------------------------------------------------
 #p MP2/cc-pvtz counterpoise=2 IOP(5/13=1) scf=tight Symmetry=None MaxD
 isk=100GB Opt=tight
 ----------------------------------------------------------------------
 1/7=10,18=20,19=15,38=1,62=2/1,3;
 2/9=110,12=2,15=1,17=6,18=5,40=1/2;
 1/7=10,18=20,19=15,38=1,53=5172,62=2,63=100/22;
 3/5=16,6=1,11=9,16=1,25=1,30=1,71=1/1,2,3;
 4//1;
 5/5=2,13=1,32=2,38=5/2;
 8/6=4,10=1/1;
 9/15=2,16=-3/6;
 10/5=1,31=1/2;
 6/7=2,8=2,9=2,10=2/1;
 7/7=1,12=2,30=1,33=-1/1,2,3,16;
 1/7=10,18=20,19=15,53=4052,62=2,63=101/22;
 3/5=7,6=11,11=9,16=1,25=1,30=1,71=1,82=7/1,2,3;
 4//1;
 5/5=2,13=1,32=2,38=5/2;
 8/6=4,10=1/1;
 9/15=2,16=-3/6;
 10/5=1,31=1/2;
 6/7=2,8=2,9=2,10=2/1;
 7/7=1,12=2,30=1,33=-1/1,2,3,16;
 1/7=10,18=20,19=15,53=3042,62=2,63=102/22;
 3/5=7,6=11,11=9,16=1,25=1,30=1,71=1,82=7/1,2,3;
 4//1;
 5/5=2,13=1,32=2,38=5/2;
 8/6=4,10=1/1;
 9/15=2,16=-3/6;
 10/5=1,31=1/2;
 6/7=2,8=2,9=2,10=2/1;
 7/7=1,12=2,30=1,33=-1/1,2,3,16;
 1/7=10,18=20,19=15,53=2032,62=2,63=103/22;
 3/5=7,6=11,11=9,16=1,25=1,30=1,71=1,82=7/1,2,3;
 4//1;
 5/5=2,13=1,32=2,38=5/2;
 8/6=4,10=1/1;
 9/15=2,16=-3/6;
 10/5=1,31=1/2;
 6/7=2,8=2,9=2,10=2/1;
 7/7=1,12=2,30=1,33=-1/1,2,3,16;
 1/7=10,18=20,19=15,53=1022,62=2,63=104/22;
 3/5=7,6=11,11=9,16=1,25=1,30=1,71=1,82=7/1,2,3;
 4//1;
 5/5=2,13=1,32=2,38=5/2;
 8/6=4,10=1/1;
 9/15=2,16=-3/6;
 10/5=1,31=1/2;
 6/7=2,8=2,9=2,10=2/1;
 7/7=1,12=2,30=1,33=-1/1,2,3,16;
 1/7=10,18=20,19=15,53=5015,62=2,63=105/22;
 7/9=1,44=-1/16;
 1/7=10,18=20,19=15,62=2,63=100/3(2);
 2/9=110,15=1/2;
 99//99;
 2/9=110,15=1/2;
 1/7=10,18=20,19=15,53=5173,62=2,63=100/22;
 3/5=7,6=11,11=9,16=1,25=1,30=1,71=1,82=7/1,2,3;
 4/5=5,16=3/1;
 5/5=2,13=1,32=2,38=5/2;
 8/6=4,10=1/1;
 9/15=2,16=-3/6;
 10/5=1,31=1/2;
 7/7=1,12=2,30=1,33=-1/1,2,3,16;
 1/7=10,18=20,19=15,53=4053,62=2,63=101/22;
 3/5=7,6=11,11=9,16=1,25=1,30=1,71=1,82=7/1,2,3;
 4/5=5,16=3/1;
 5/5=2,13=1,32=2,38=5/2;
 8/6=4,10=1/1;
 9/15=2,16=-3/6;
 10/5=1,31=1/2;
 7/7=1,12=2,30=1,33=-1/1,2,3,16;
 1/7=10,18=20,19=15,53=3043,62=2,63=102/22;
 3/5=7,6=11,11=9,16=1,25=1,30=1,71=1,82=7/1,2,3;
 4/5=5,16=3/1;
 5/5=2,13=1,32=2,38=5/2;
 8/6=4,10=1/1;
 9/15=2,16=-3/6;
 10/5=1,31=1/2;
 7/7=1,12=2,30=1,33=-1/1,2,3,16;
 1/7=10,18=20,19=15,53=2033,62=2,63=103/22;
 3/5=7,6=11,11=9,16=1,25=1,30=1,71=1,82=7/1,2,3;
 4/5=5,16=3/1;
 5/5=2,13=1,32=2,38=5/2;
 8/6=4,10=1/1;
 9/15=2,16=-3/6;
 10/5=1,31=1/2;
 7/7=1,12=2,30=1,33=-1/1,2,3,16;
 1/7=10,18=20,19=15,53=1024,62=2,63=104/22;
 3/5=7,6=11,11=9,16=1,25=1,30=1,71=1,82=7/1,2,3;
 4/5=5,16=3/1;
 5/5=2,13=1,32=2,38=5/2;
 8/6=4,10=1/1;
 9/15=2,16=-3/6;
 10/5=1,31=1/2;
 7/7=1,12=2,30=1,33=-1/1,2,3,16;
 1/7=10,18=20,19=15,53=5015,62=2,63=105/22;
 7/9=1,44=-1/16;
 1/7=10,18=20,19=15,62=2,63=100/3(-43);
 2/9=110,15=1/2;
 6/7=2,8=2,9=2,10=2/1;
 99//99;
 Leave Link    1 at Fri Sep  6 17:02:06 2019, MaxMem= 4294967296 cpu:       0.4
 (Enter /opt/g09gh/gaussian/g09/l101.exe)
 ---------
 Opt=tight
 ---------
 Symbolic Z-matrix:
 Charge =  0 Multiplicity = 1 in supermolecule
 Charge =  0 Multiplicity = 1 in fragment  1.
 Charge =  0 Multiplicity = 1 in fragment  2.
 C(Fragment=1)         1.69147  -0.17006   0. 
 H(Fragment=1)         2.795    -0.28101   0. 
 O(Fragment=1)         1.02814  -1.21721   0. 
 O(Fragment=1)         1.36967   1.08861   0. 
 H(Fragment=1)         0.34381   1.18798   0. 
 C(Fragment=2)        -1.69147   0.17006   0. 
 H(Fragment=2)        -2.795     0.28101   0. 
 O(Fragment=2)        -1.02814   1.21721   0. 
 O(Fragment=2)        -1.36967  -1.08861   0. 
 H(Fragment=2)        -0.34381  -1.18798   0. 
 
 NAtoms=     10 NQM=     10 NQMF=      0 NMic=      0 NMicF=      0 NTot=     10.
                    Isotopes and Nuclear Properties:
 (Nuclear quadrupole moments (NQMom) in fm**2, nuclear magnetic moments (NMagM)
  in nuclear magnetons)

  Atom         1           2           3           4           5           6           7           8           9          10
 IAtWgt=          12           1          16          16           1          12           1          16          16           1
 AtmWgt=  12.0000000   1.0078250  15.9949146  15.9949146   1.0078250  12.0000000   1.0078250  15.9949146  15.9949146   1.0078250
 NucSpn=           0           1           0           0           1           0           1           0           0           1
 AtZEff=   0.0000000   0.0000000   0.0000000   0.0000000   0.0000000   0.0000000   0.0000000   0.0000000   0.0000000   0.0000000
 NQMom=    0.0000000   0.0000000   0.0000000   0.0000000   0.0000000   0.0000000   0.0000000   0.0000000   0.0000000   0.0000000
 NMagM=    0.0000000   2.7928460   0.0000000   0.0000000   2.7928460   0.0000000   2.7928460   0.0000000   0.0000000   2.7928460
 Leave Link  101 at Fri Sep  6 17:02:06 2019, MaxMem= 4294967296 cpu:       0.7
 (Enter /opt/g09gh/gaussian/g09/l103.exe)

 GradGradGradGradGradGradGradGradGradGradGradGradGradGradGradGradGradGrad
 Berny optimization.
 Initialization pass.
                           ----------------------------
                           !    Initial Parameters    !
                           ! (Angstroms and Degrees)  !
 --------------------------                            --------------------------
 ! Name  Definition              Value          Derivative Info.                !
 --------------------------------------------------------------------------------
 ! R1    R(1,2)                  1.1091         estimate D2E/DX2                !
 ! R2    R(1,3)                  1.2396         estimate D2E/DX2                !
 ! R3    R(1,4)                  1.2992         estimate D2E/DX2                !
 ! R4    R(3,10)                 1.3723         estimate D2E/DX2                !
 ! R5    R(4,5)                  1.0307         estimate D2E/DX2                !
 ! R6    R(5,8)                  1.3723         estimate D2E/DX2                !
 ! R7    R(6,7)                  1.1091         estimate D2E/DX2                !
 ! R8    R(6,8)                  1.2396         estimate D2E/DX2                !
 ! R9    R(6,9)                  1.2992         estimate D2E/DX2                !
 ! R10   R(9,10)                 1.0307         estimate D2E/DX2                !
 ! A1    A(2,1,3)              116.6116         estimate D2E/DX2                !
 ! A2    A(2,1,4)              110.083          estimate D2E/DX2                !
 ! A3    A(3,1,4)              133.3054         estimate D2E/DX2                !
 ! A4    A(1,3,10)             121.1325         estimate D2E/DX2                !
 ! A5    A(1,4,5)              109.8747         estimate D2E/DX2                !
 ! A6    A(7,6,8)              116.6116         estimate D2E/DX2                !
 ! A7    A(7,6,9)              110.083          estimate D2E/DX2                !
 ! A8    A(8,6,9)              133.3054         estimate D2E/DX2                !
 ! A9    A(5,8,6)              121.1325         estimate D2E/DX2                !
 ! A10   A(6,9,10)             109.8747         estimate D2E/DX2                !
 ! A11   L(4,5,8,1,-1)         175.6874         estimate D2E/DX2                !
 ! A12   L(3,10,9,6,-1)        175.6874         estimate D2E/DX2                !
 ! A13   L(4,5,8,1,-2)         180.0            estimate D2E/DX2                !
 ! A14   L(3,10,9,6,-2)        180.0            estimate D2E/DX2                !
 ! D1    D(2,1,3,10)           180.0            estimate D2E/DX2                !
 ! D2    D(4,1,3,10)             0.0            estimate D2E/DX2                !
 ! D3    D(2,1,4,5)            180.0            estimate D2E/DX2                !
 ! D4    D(3,1,4,5)              0.0            estimate D2E/DX2                !
 ! D5    D(1,3,9,6)              0.0            estimate D2E/DX2                !
 ! D6    D(1,4,8,6)              0.0            estimate D2E/DX2                !
 ! D7    D(7,6,8,5)            180.0            estimate D2E/DX2                !
 ! D8    D(9,6,8,5)              0.0            estimate D2E/DX2                !
 ! D9    D(7,6,9,10)           180.0            estimate D2E/DX2                !
 ! D10   D(8,6,9,10)             0.0            estimate D2E/DX2                !
 --------------------------------------------------------------------------------
 Trust Radius=3.00D-01 FncErr=1.00D-07 GrdErr=1.00D-07
 Number of steps in this run=  44 maximum allowed number of steps= 100.
 GradGradGradGradGradGradGradGradGradGradGradGradGradGradGradGradGradGrad

 Leave Link  103 at Fri Sep  6 17:02:06 2019, MaxMem= 4294967296 cpu:       0.1
 (Enter /opt/g09gh/gaussian/g09/l202.exe)
                          Input orientation:                          
 ---------------------------------------------------------------------
 Center     Atomic      Atomic             Coordinates (Angstroms)
 Number     Number       Type             X           Y           Z
 ---------------------------------------------------------------------
      1          6           0        1.691473   -0.170063    0.000000
      2          1           0        2.795002   -0.281013    0.000000
      3          8           0        1.028141   -1.217209    0.000000
      4          8           0        1.369666    1.088607    0.000000
      5          1           0        0.343808    1.187982    0.000000
      6          6           0       -1.691473    0.170063    0.000000
      7          1           0       -2.795002    0.281013    0.000000
      8          8           0       -1.028141    1.217209    0.000000
      9          8           0       -1.369666   -1.088607    0.000000
     10          1           0       -0.343808   -1.187982    0.000000
 ---------------------------------------------------------------------
                    Distance matrix (angstroms):
                    1          2          3          4          5
     1  C    0.000000
     2  H    1.109093   0.000000
     3  O    1.239566   1.999565   0.000000
     4  O    1.299157   1.976725   2.330971   0.000000
     5  H    1.913240   2.857674   2.500651   1.030660   0.000000
     6  C    3.400001   4.509093   3.053002   3.195981   2.275637
     7  H    4.509093   5.618186   4.106226   4.242248   3.267219
     8  O    3.053002   4.106226   3.186642   2.401253   1.372260
     9  O    3.195981   4.242248   2.401253   3.499171   2.849359
    10  H    2.275637   3.267219   1.372260   2.849359   2.473463
                    6          7          8          9         10
     6  C    0.000000
     7  H    1.109093   0.000000
     8  O    1.239566   1.999565   0.000000
     9  O    1.299157   1.976725   2.330971   0.000000
    10  H    1.913240   2.857674   2.500651   1.030660   0.000000
 Symmetry turned off by external request.
 Stoichiometry    C2H4O4
 Framework group  C2H[SGH(C2H4O4)]
 Deg. of freedom     9
 Full point group                 C2H     NOp   4
 Rotational constants (GHZ):      5.6781593      2.8315950      1.8893903
 Mismatch for IA=    1 IOp=  2 Frag= 1 JA=    6 Frag= 2
 Mismatch for IA=    2 IOp=  2 Frag= 1 JA=    7 Frag= 2
 Mismatch for IA=    3 IOp=  2 Frag= 1 JA=    8 Frag= 2
 Mismatch for IA=    4 IOp=  2 Frag= 1 JA=    9 Frag= 2
 Mismatch for IA=    5 IOp=  2 Frag= 1 JA=   10 Frag= 2
 Mismatch for IA=    6 IOp=  2 Frag= 2 JA=    1 Frag= 1
 Mismatch for IA=    7 IOp=  2 Frag= 2 JA=    2 Frag= 1
 Mismatch for IA=    8 IOp=  2 Frag= 2 JA=    3 Frag= 1
 Mismatch for IA=    9 IOp=  2 Frag= 2 JA=    4 Frag= 1
 Mismatch for IA=   10 IOp=  2 Frag= 2 JA=    5 Frag= 1
 Symmetry turned off in CkCPSy: fragments do not conform to real system point group.
 Leave Link  202 at Fri Sep  6 17:02:06 2019, MaxMem= 4294967296 cpu:       0.1
 (Enter /opt/g09gh/gaussian/g09/l122.exe)
 Leave Link  122 at Fri Sep  6 17:02:06 2019, MaxMem= 4294967296 cpu:       0.0
 (Enter /opt/g09gh/gaussian/g09/l301.exe)
 Standard basis: CC-pVTZ (5D, 7F)
 Ernie: Thresh=  0.10000D-02 Tol=  0.10000D-05 Strict=F.
 Ernie:  18 primitive shells out of 188 were deleted.
 Integral buffers will be    131072 words long.
 Raffenetti 1 integral format.
 Two-electron integral symmetry is turned off.
   236 basis functions,   380 primitive gaussians,   270 cartesian basis functions
    24 alpha electrons       24 beta electrons
       nuclear repulsion energy       243.3606552377 Hartrees.
 IExCor=    0 DFT=F Ex=HF Corr=None ExCW=0 ScaHFX=  1.000000
 ScaDFX=  1.000000  1.000000  1.000000  1.000000 ScalE2=  1.000000  1.000000
 IRadAn=      0 IRanWt=     -1 IRanGd=            0 ICorTp=0
 NAtoms=   10 NActive=   10 NUniq=   10 SFac= 7.50D-01 NAtFMM=   80 NAOKFM=F Big=F
 Leave Link  301 at Fri Sep  6 17:02:06 2019, MaxMem= 4294967296 cpu:       0.5
 (Enter /opt/g09gh/gaussian/g09/l302.exe)
 NPDir=0 NMtPBC=     1 NCelOv=     1 NCel=       1 NClECP=     1 NCelD=      1
         NCelK=      1 NCelE2=     1 NClLst=     1 CellRange=     0.0.
 One-electron integrals computed using PRISM.
 NBasis=   236 RedAO= T  NBF=   236
 NBsUse=   236 1.00D-06 NBFU=   236
 Leave Link  302 at Fri Sep  6 17:02:06 2019, MaxMem= 4294967296 cpu:       1.9
 (Enter /opt/g09gh/gaussian/g09/l303.exe)
 DipDrv:  MaxL=1.
 Leave Link  303 at Fri Sep  6 17:02:07 2019, MaxMem= 4294967296 cpu:       0.3
 (Enter /opt/g09gh/gaussian/g09/l401.exe)
 Harris functional with IExCor=  205 diagonalized for initial guess.
 ExpMin= 1.03D-01 ExpMax= 1.53D+04 ExpMxC= 5.22D+02 IAcc=1 IRadAn=         1 AccDes= 0.00D+00
 HarFok:  IExCor=  205 AccDes= 0.00D+00 IRadAn=         1 IDoV= 1
 ScaDFX=  1.000000  1.000000  1.000000  1.000000
 FoFCou: FMM=F IPFlag=           0 FMFlag=      100000 FMFlg1=           0
         NFxFlg=           0 DoJE=T BraDBF=F KetDBF=T FulRan=T
         Omega=  0.000000  0.000000  1.000000  0.000000  0.000000 ICntrl=     500 IOpCl=  0
         NMat0=    1 NMatS0=    1 NMatT0=    0 NMatD0=    1 NMtDS0=    0 NMtDT0=    0
         I1Cent=           4 NGrid=           0.
 Symmetry not used in FoFCou.
 Harris En= -377.934790835875    
 Leave Link  401 at Fri Sep  6 17:02:07 2019, MaxMem= 4294967296 cpu:       3.0
 (Enter /opt/g09gh/gaussian/g09/l502.exe)
 Closed shell SCF:
 Requested convergence on RMS density matrix=1.00D-08 within  64 cycles.
 Requested convergence on MAX density matrix=1.00D-06.
 Requested convergence on             energy=1.00D-06.
 No special actions if energy rises.
 Using DIIS extrapolation, IDIIS=  1040.
 Two-electron integral symmetry not used.
 Keep R1 ints in memory in canonical form, NReq=679428577.
 IEnd=      228038 IEndB=      228038 NGot=  4294967296 MDV=  3625567220
 LenX=  3625567220 LenY=  3625493879
 Symmetry not used in FoFDir.
 MinBra= 0 MaxBra= 3 Meth= 1.
 IRaf=       0 NMat=   1 IRICut=       1 DoRegI=T DoRafI=F ISym2E= 0 JSym2E=0.

 Cycle   1  Pass 1  IDiag  1:
 E= -377.467266400823    
 DIIS: error= 4.16D-02 at cycle   1 NSaved=   1.
 NSaved= 1 IEnMin= 1 EnMin= -377.467266400823     IErMin= 1 ErrMin= 4.16D-02
 ErrMax= 4.16D-02 EMaxC= 1.00D-01 BMatC= 6.56D-01 BMatP= 6.56D-01
 IDIUse=3 WtCom= 5.84D-01 WtEn= 4.16D-01
 Coeff-Com:  0.100D+01
 Coeff-En:   0.100D+01
 Coeff:      0.100D+01
 Gap=     0.571 Goal=   None    Shift=    0.000
 GapD=    0.571 DampG=2.000 DampE=0.500 DampFc=1.0000 IDamp=-1.
 RMSDP=1.37D-03 MaxDP=3.68D-02              OVMax= 8.71D-02

 Cycle   2  Pass 1  IDiag  1:
 E= -377.631811748443     Delta-E=       -0.164545347620 Rises=F Damp=F
 DIIS: error= 1.64D-02 at cycle   2 NSaved=   2.
 NSaved= 2 IEnMin= 2 EnMin= -377.631811748443     IErMin= 2 ErrMin= 1.64D-02
 ErrMax= 1.64D-02 EMaxC= 1.00D-01 BMatC= 7.53D-02 BMatP= 6.56D-01
 IDIUse=3 WtCom= 8.36D-01 WtEn= 1.64D-01
 Coeff-Com:  0.175D+00 0.825D+00
 Coeff-En:   0.000D+00 0.100D+01
 Coeff:      0.147D+00 0.853D+00
 Gap=     0.655 Goal=   None    Shift=    0.000
 RMSDP=6.62D-04 MaxDP=1.78D-02 DE=-1.65D-01 OVMax= 5.79D-02

 Cycle   3  Pass 1  IDiag  1:
 E= -377.669381349912     Delta-E=       -0.037569601469 Rises=F Damp=F
 DIIS: error= 6.71D-03 at cycle   3 NSaved=   3.
 NSaved= 3 IEnMin= 3 EnMin= -377.669381349912     IErMin= 3 ErrMin= 6.71D-03
 ErrMax= 6.71D-03 EMaxC= 1.00D-01 BMatC= 1.35D-02 BMatP= 7.53D-02
 IDIUse=3 WtCom= 9.33D-01 WtEn= 6.71D-02
 Coeff-Com: -0.277D-01 0.271D+00 0.757D+00
 Coeff-En:   0.000D+00 0.000D+00 0.100D+01
 Coeff:     -0.259D-01 0.252D+00 0.773D+00
 Gap=     0.599 Goal=   None    Shift=    0.000
 RMSDP=1.89D-04 MaxDP=6.70D-03 DE=-3.76D-02 OVMax= 1.37D-02

 Cycle   4  Pass 1  IDiag  1:
 E= -377.677119918802     Delta-E=       -0.007738568890 Rises=F Damp=F
 DIIS: error= 1.06D-03 at cycle   4 NSaved=   4.
 NSaved= 4 IEnMin= 4 EnMin= -377.677119918802     IErMin= 4 ErrMin= 1.06D-03
 ErrMax= 1.06D-03 EMaxC= 1.00D-01 BMatC= 1.82D-04 BMatP= 1.35D-02
 IDIUse=3 WtCom= 9.89D-01 WtEn= 1.06D-02
 Coeff-Com: -0.778D-02 0.422D-01 0.168D+00 0.798D+00
 Coeff-En:   0.000D+00 0.000D+00 0.000D+00 0.100D+01
 Coeff:     -0.770D-02 0.417D-01 0.166D+00 0.800D+00
 Gap=     0.601 Goal=   None    Shift=    0.000
 RMSDP=3.70D-05 MaxDP=9.66D-04 DE=-7.74D-03 OVMax= 3.92D-03

 Cycle   5  Pass 1  IDiag  1:
 E= -377.677303281927     Delta-E=       -0.000183363125 Rises=F Damp=F
 DIIS: error= 3.89D-04 at cycle   5 NSaved=   5.
 NSaved= 5 IEnMin= 5 EnMin= -377.677303281927     IErMin= 5 ErrMin= 3.89D-04
 ErrMax= 3.89D-04 EMaxC= 1.00D-01 BMatC= 2.63D-05 BMatP= 1.82D-04
 IDIUse=3 WtCom= 9.96D-01 WtEn= 3.89D-03
 Coeff-Com:  0.223D-02-0.244D-01-0.769D-01 0.946D-01 0.100D+01
 Coeff-En:   0.000D+00 0.000D+00 0.000D+00 0.000D+00 0.100D+01
 Coeff:      0.222D-02-0.243D-01-0.766D-01 0.942D-01 0.100D+01
 Gap=     0.601 Goal=   None    Shift=    0.000
 RMSDP=1.98D-05 MaxDP=4.55D-04 DE=-1.83D-04 OVMax= 2.03D-03

 Cycle   6  Pass 1  IDiag  1:
 E= -377.677341925001     Delta-E=       -0.000038643074 Rises=F Damp=F
 DIIS: error= 1.83D-04 at cycle   6 NSaved=   6.
 NSaved= 6 IEnMin= 6 EnMin= -377.677341925001     IErMin= 6 ErrMin= 1.83D-04
 ErrMax= 1.83D-04 EMaxC= 1.00D-01 BMatC= 4.80D-06 BMatP= 2.63D-05
 IDIUse=3 WtCom= 9.98D-01 WtEn= 1.83D-03
 Coeff-Com:  0.174D-02-0.135D-01-0.485D-01-0.758D-01 0.309D+00 0.827D+00
 Coeff-En:   0.000D+00 0.000D+00 0.000D+00 0.000D+00 0.000D+00 0.100D+01
 Coeff:      0.174D-02-0.134D-01-0.484D-01-0.756D-01 0.308D+00 0.827D+00
 Gap=     0.601 Goal=   None    Shift=    0.000
 RMSDP=7.94D-06 MaxDP=2.01D-04 DE=-3.86D-05 OVMax= 6.07D-04

 Cycle   7  Pass 1  IDiag  1:
 E= -377.677348626142     Delta-E=       -0.000006701141 Rises=F Damp=F
 DIIS: error= 6.77D-05 at cycle   7 NSaved=   7.
 NSaved= 7 IEnMin= 7 EnMin= -377.677348626142     IErMin= 7 ErrMin= 6.77D-05
 ErrMax= 6.77D-05 EMaxC= 1.00D-01 BMatC= 3.48D-07 BMatP= 4.80D-06
 IDIUse=1 WtCom= 1.00D+00 WtEn= 0.00D+00
 Coeff-Com: -0.449D-03 0.485D-02 0.167D-01-0.535D-02-0.166D+00-0.155D+00
 Coeff-Com:  0.131D+01
 Coeff:     -0.449D-03 0.485D-02 0.167D-01-0.535D-02-0.166D+00-0.155D+00
 Coeff:      0.131D+01
 Gap=     0.601 Goal=   None    Shift=    0.000
 RMSDP=3.92D-06 MaxDP=1.37D-04 DE=-6.70D-06 OVMax= 5.03D-04

 Cycle   8  Pass 1  IDiag  1:
 E= -377.677349814466     Delta-E=       -0.000001188324 Rises=F Damp=F
 DIIS: error= 1.41D-05 at cycle   8 NSaved=   8.
 NSaved= 8 IEnMin= 8 EnMin= -377.677349814466     IErMin= 8 ErrMin= 1.41D-05
 ErrMax= 1.41D-05 EMaxC= 1.00D-01 BMatC= 3.06D-08 BMatP= 3.48D-07
 IDIUse=1 WtCom= 1.00D+00 WtEn= 0.00D+00
 Coeff-Com: -0.428D-04 0.138D-03 0.330D-03 0.288D-02 0.175D-01-0.414D-01
 Coeff-Com: -0.243D+00 0.126D+01
 Coeff:     -0.428D-04 0.138D-03 0.330D-03 0.288D-02 0.175D-01-0.414D-01
 Coeff:     -0.243D+00 0.126D+01
 Gap=     0.601 Goal=   None    Shift=    0.000
 RMSDP=1.13D-06 MaxDP=3.99D-05 DE=-1.19D-06 OVMax= 1.62D-04

 Cycle   9  Pass 1  IDiag  1:
 E= -377.677349912525     Delta-E=       -0.000000098059 Rises=F Damp=F
 DIIS: error= 5.05D-06 at cycle   9 NSaved=   9.
 NSaved= 9 IEnMin= 9 EnMin= -377.677349912525     IErMin= 9 ErrMin= 5.05D-06
 ErrMax= 5.05D-06 EMaxC= 1.00D-01 BMatC= 3.56D-09 BMatP= 3.06D-08
 IDIUse=1 WtCom= 1.00D+00 WtEn= 0.00D+00
 Coeff-Com:  0.493D-04-0.476D-03-0.160D-02-0.115D-02 0.148D-01 0.177D-01
 Coeff-Com: -0.565D-01-0.309D+00 0.134D+01
 Coeff:      0.493D-04-0.476D-03-0.160D-02-0.115D-02 0.148D-01 0.177D-01
 Coeff:     -0.565D-01-0.309D+00 0.134D+01
 Gap=     0.601 Goal=   None    Shift=    0.000
 RMSDP=4.05D-07 MaxDP=1.03D-05 DE=-9.81D-08 OVMax= 5.95D-05

 Cycle  10  Pass 1  IDiag  1:
 E= -377.677349924184     Delta-E=       -0.000000011659 Rises=F Damp=F
 DIIS: error= 1.52D-06 at cycle  10 NSaved=  10.
 NSaved=10 IEnMin=10 EnMin= -377.677349924184     IErMin=10 ErrMin= 1.52D-06
 ErrMax= 1.52D-06 EMaxC= 1.00D-01 BMatC= 3.86D-10 BMatP= 3.56D-09
 IDIUse=1 WtCom= 1.00D+00 WtEn= 0.00D+00
 Coeff-Com: -0.502D-05 0.750D-04 0.337D-03-0.417D-03-0.491D-02-0.433D-03
 Coeff-Com:  0.518D-01-0.126D+00-0.193D+00 0.127D+01
 Coeff:     -0.502D-05 0.750D-04 0.337D-03-0.417D-03-0.491D-02-0.433D-03
 Coeff:      0.518D-01-0.126D+00-0.193D+00 0.127D+01
 Gap=     0.601 Goal=   None    Shift=    0.000
 RMSDP=1.33D-07 MaxDP=4.29D-06 DE=-1.17D-08 OVMax= 1.84D-05

 Cycle  11  Pass 1  IDiag  1:
 E= -377.677349925333     Delta-E=       -0.000000001149 Rises=F Damp=F
 DIIS: error= 3.65D-07 at cycle  11 NSaved=  11.
 NSaved=11 IEnMin=11 EnMin= -377.677349925333     IErMin=11 ErrMin= 3.65D-07
 ErrMax= 3.65D-07 EMaxC= 1.00D-01 BMatC= 2.16D-11 BMatP= 3.86D-10
 IDIUse=1 WtCom= 1.00D+00 WtEn= 0.00D+00
 Coeff-Com: -0.310D-05 0.254D-04 0.739D-04 0.117D-03-0.620D-04-0.144D-02
 Coeff-Com: -0.768D-02 0.565D-01-0.578D-01-0.331D+00 0.134D+01
 Coeff:     -0.310D-05 0.254D-04 0.739D-04 0.117D-03-0.620D-04-0.144D-02
 Coeff:     -0.768D-02 0.565D-01-0.578D-01-0.331D+00 0.134D+01
 Gap=     0.601 Goal=   None    Shift=    0.000
 RMSDP=3.24D-08 MaxDP=1.29D-06 DE=-1.15D-09 OVMax= 4.03D-06

 Cycle  12  Pass 1  IDiag  1:
 E= -377.677349925391     Delta-E=       -0.000000000058 Rises=F Damp=F
 DIIS: error= 7.17D-08 at cycle  12 NSaved=  12.
 NSaved=12 IEnMin=12 EnMin= -377.677349925391     IErMin=12 ErrMin= 7.17D-08
 ErrMax= 7.17D-08 EMaxC= 1.00D-01 BMatC= 7.52D-13 BMatP= 2.16D-11
 IDIUse=1 WtCom= 1.00D+00 WtEn= 0.00D+00
 Coeff-Com:  0.686D-06-0.764D-05-0.266D-04-0.254D-04 0.247D-03 0.370D-03
 Coeff-Com: -0.821D-03-0.565D-02 0.203D-01 0.635D-02-0.270D+00 0.125D+01
 Coeff:      0.686D-06-0.764D-05-0.266D-04-0.254D-04 0.247D-03 0.370D-03
 Coeff:     -0.821D-03-0.565D-02 0.203D-01 0.635D-02-0.270D+00 0.125D+01
 Gap=     0.601 Goal=   None    Shift=    0.000
 RMSDP=5.94D-09 MaxDP=1.67D-07 DE=-5.81D-11 OVMax= 5.74D-07

 SCF Done:  E(RHF) =  -377.677349925     A.U. after   12 cycles
             Convg  =    0.5937D-08             -V/T =  2.0014
 KE= 3.771425978062D+02 PE=-1.378946141244D+03 EE= 3.807655382750D+02
 Leave Link  502 at Fri Sep  6 17:02:47 2019, MaxMem= 4294967296 cpu:     315.7
 (Enter /opt/g09gh/gaussian/g09/l801.exe)
 ExpMin= 1.03D-01 ExpMax= 1.53D+04 ExpMxC= 5.22D+02 IAcc=1 IRadAn=         1 AccDes= 0.00D+00
 HarFok:  IExCor=  205 AccDes= 0.00D+00 IRadAn=         1 IDoV=-2
 ScaDFX=  1.000000  1.000000  1.000000  1.000000
 Largest valence mixing into a core orbital is  2.21D-04
 Largest core mixing into a valence orbital is  2.96D-05
 Range of M.O.s used for correlation:     7   236
 NBasis=   236 NAE=    24 NBE=    24 NFC=     6 NFV=     0
 NROrb=    230 NOA=    18 NOB=    18 NVA=   212 NVB=   212
 Leave Link  801 at Fri Sep  6 17:02:47 2019, MaxMem= 4294967296 cpu:       0.4
 (Enter /opt/g09gh/gaussian/g09/l906.exe)
 Frozen-core derivative calculation, NFC=   6 NFV=   0.
 FulOut=F Deriv=T AODrv=T NAtomX=    10
   MMem=         442  MDisk=          18 MDiskD=          18
  W3Min=     1529280 MinDsk=     2425865 NBas6D=         270
 NBas2D=       37173    NTT=       36585    LW2=     3500000
    MDV=  4294303480 MDiskM=       79487 NBas2p=       35827
 Fully direct method using O(ONN) memory.
 IMap=   1   2   3   4   5   6   7   8   9  10  11  12  13  14  15  16  17  18  19  20
 IMap=  21  22  23  24
 JobTyp=1 Pass  1:  I=   7 to  24 NPSUse=  8 ParTrn=T ParDer=T DoDerP=T.
 Spin components of T(2) and E(2):
     alpha-alpha T2 =       0.4423335434D-01 E2=     -0.1665000596D+00
     alpha-beta  T2 =       0.2353649049D+00 E2=     -0.9454158342D+00
     beta-beta   T2 =       0.4423335434D-01 E2=     -0.1665000596D+00
 The integrals were generated   1 times.
 ANorm=    0.1150578817D+01
 E2 =    -0.1278415953D+01 EUMP2 =    -0.37895576587882D+03
 Leave Link  906 at Fri Sep  6 17:03:43 2019, MaxMem= 4294967296 cpu:     450.0
 (Enter /opt/g09gh/gaussian/g09/l1002.exe)
 Minotr:  Closed shell wavefunction.
          Computing MP2/KS-MP2 derivatives.
          Using Z-Vector for PSCF gradient.
          Skipping F1 and S1 gradient terms here.
          IDoAtm=1111111111
          Frozen-core window.
          Direct CPHF calculation.
          Differentiating once with respect to electric field.
                with respect to dipole field.
          Differentiating once with respect to nuclear coordinates.
          Requested convergence is 1.0D-10 RMS, and 1.0D-09 maximum.
          NewPWx=F KeepS1=T KeepF1=T KeepIn=T MapXYZ=F SortEE=F KeepMc=T.
          MDV=    4294967192 using IRadAn=       0.
          Keep R1 ints in memory in canonical form, NReq=671191012.
 Symmetry not used in FoFDir.
 MinBra= 0 MaxBra= 3 Meth= 1.
 IRaf=       0 NMat=   1 IRICut=       1 DoRegI=T DoRafI=F ISym2E= 0 JSym2E=0.
          Solving linear equations separately, MaxMat=       0.
          There are     1 degrees of freedom in the 1st order CPHF.  IDoFFX=0.
 LinEq1:  Iter=  0 NonCon=     1 RMS=4.64D-03 Max=1.74D-01
 AX will form     1 AO Fock derivatives at one time.
 LinEq1:  Iter=  1 NonCon=     1 RMS=1.15D-03 Max=1.82D-02
 LinEq1:  Iter=  2 NonCon=     1 RMS=4.19D-04 Max=8.94D-03
 LinEq1:  Iter=  3 NonCon=     1 RMS=1.61D-04 Max=2.68D-03
 LinEq1:  Iter=  4 NonCon=     1 RMS=4.87D-05 Max=6.72D-04
 LinEq1:  Iter=  5 NonCon=     1 RMS=2.00D-05 Max=4.05D-04
 LinEq1:  Iter=  6 NonCon=     1 RMS=5.24D-06 Max=7.75D-05
 LinEq1:  Iter=  7 NonCon=     1 RMS=8.63D-07 Max=1.43D-05
 LinEq1:  Iter=  8 NonCon=     1 RMS=1.55D-07 Max=3.30D-06
 LinEq1:  Iter=  9 NonCon=     1 RMS=2.73D-08 Max=6.59D-07
 LinEq1:  Iter= 10 NonCon=     1 RMS=4.76D-09 Max=7.49D-08
 LinEq1:  Iter= 11 NonCon=     1 RMS=1.06D-09 Max=1.29D-08
 LinEq1:  Iter= 12 NonCon=     1 RMS=2.30D-10 Max=3.42D-09
 LinEq1:  Iter= 13 NonCon=     0 RMS=3.51D-11 Max=6.01D-10
 Linear equations converged to 1.000D-10 1.000D-09 after    13 iterations.
 End of Minotr Frequency-dependent properties file   721 does not exist.
 End of Minotr Frequency-dependent properties file   722 does not exist.
 Leave Link 1002 at Fri Sep  6 17:04:27 2019, MaxMem= 4294967296 cpu:     349.1
 (Enter /opt/g09gh/gaussian/g09/l601.exe)
 Copying SCF densities to generalized density rwf, IOpCl= 0 IROHF=0.

 **********************************************************************

            Population analysis using the SCF density.

 **********************************************************************

 Alpha  occ. eigenvalues --  -20.60798 -20.60798 -20.58290 -20.58290 -11.41408
 Alpha  occ. eigenvalues --  -11.41408  -1.48963  -1.46089  -1.40481  -1.37334
 Alpha  occ. eigenvalues --   -0.93474  -0.86610  -0.80732  -0.73616  -0.71670
 Alpha  occ. eigenvalues --   -0.68526  -0.64999  -0.63000  -0.61206  -0.58258
 Alpha  occ. eigenvalues --   -0.51762  -0.50482  -0.49499  -0.45930
 Alpha virt. eigenvalues --    0.14204   0.15475   0.16675   0.16776   0.23228
 Alpha virt. eigenvalues --    0.27527   0.33483   0.33857   0.35240   0.38485
 Alpha virt. eigenvalues --    0.39248   0.44471   0.48719   0.53990   0.56509
 Alpha virt. eigenvalues --    0.56838   0.57462   0.59297   0.67548   0.69146
 Alpha virt. eigenvalues --    0.69551   0.69647   0.69705   0.72738   0.74291
 Alpha virt. eigenvalues --    0.74999   0.78491   0.79382   0.81490   0.84513
 Alpha virt. eigenvalues --    0.85850   0.88955   0.89752   0.94368   0.95939
 Alpha virt. eigenvalues --    0.98161   0.98523   0.98555   1.07034   1.11503
 Alpha virt. eigenvalues --    1.15604   1.16019   1.19738   1.21272   1.22217
 Alpha virt. eigenvalues --    1.26207   1.28221   1.31303   1.35535   1.38925
 Alpha virt. eigenvalues --    1.47917   1.55071   1.56742   1.61671   1.66818
 Alpha virt. eigenvalues --    1.69505   1.75010   1.83980   1.86869   1.88084
 Alpha virt. eigenvalues --    1.93947   1.96027   1.98864   2.08018   2.11275
 Alpha virt. eigenvalues --    2.15831   2.17937   2.21654   2.21775   2.21948
 Alpha virt. eigenvalues --    2.24435   2.27745   2.39985   2.40081   2.40330
 Alpha virt. eigenvalues --    2.40445   2.45350   2.53519   2.56695   2.59777
 Alpha virt. eigenvalues --    2.69978   2.74027   2.78300   2.82845   2.84118
 Alpha virt. eigenvalues --    2.87018   2.87061   2.90147   2.95649   2.98452
 Alpha virt. eigenvalues --    3.01883   3.10539   3.19385   3.20743   3.22202
 Alpha virt. eigenvalues --    3.23943   3.26664   3.27420   3.28821   3.32446
 Alpha virt. eigenvalues --    3.33815   3.48023   3.49788   3.50146   3.52320
 Alpha virt. eigenvalues --    3.57106   3.58511   3.59509   3.61418   3.62233
 Alpha virt. eigenvalues --    3.63684   3.64392   3.68453   3.70532   3.74191
 Alpha virt. eigenvalues --    3.77565   3.81006   3.88596   3.95746   3.99202
 Alpha virt. eigenvalues --    4.02242   4.06602   4.08516   4.11747   4.13486
 Alpha virt. eigenvalues --    4.14445   4.20548   4.20955   4.27008   4.29772
 Alpha virt. eigenvalues --    4.32183   4.34948   4.45747   4.45898   4.49283
 Alpha virt. eigenvalues --    4.50998   4.57096   4.59603   4.64835   4.68035
 Alpha virt. eigenvalues --    4.80084   4.82245   4.86455   4.92686   4.96239
 Alpha virt. eigenvalues --    4.96794   5.05432   5.13653   5.17683   5.25034
 Alpha virt. eigenvalues --    5.34710   5.39861   5.40951   5.44405   5.66351
 Alpha virt. eigenvalues --    5.67636   5.68419   5.70073   5.74213   5.79512
 Alpha virt. eigenvalues --    5.84588   5.87131   5.88075   5.91597   5.97155
 Alpha virt. eigenvalues --    5.97689   6.00882   6.21257   6.40548   6.48188
 Alpha virt. eigenvalues --    6.50156   6.51250   6.55730   6.70868   6.70897
 Alpha virt. eigenvalues --    6.74258   6.79800   6.81830   6.89718   6.90008
 Alpha virt. eigenvalues --    6.95866   7.01616   7.03978   7.08489   7.10575
 Alpha virt. eigenvalues --    7.15657   7.18689   7.21245   7.22422   7.24889
 Alpha virt. eigenvalues --    7.27802   7.31593   7.34248   7.37706   7.44919
 Alpha virt. eigenvalues --    7.49185   7.54478   7.58825   7.61451   7.70899
 Alpha virt. eigenvalues --    7.74243   7.94884   7.99677   7.99944   8.29677
 Alpha virt. eigenvalues --    8.36711  10.36552  10.50082  12.48788  12.76329
 Alpha virt. eigenvalues --   13.78893  14.06182
          Condensed to atoms (all electrons):
              1          2          3          4          5          6
     1  C    4.223613   0.420526   0.585762   0.462272  -0.022639   0.003901
     2  H    0.420526   0.549107  -0.050961  -0.057367   0.002948   0.000323
     3  O    0.585762  -0.050961   7.897004  -0.061677  -0.001988   0.005237
     4  O    0.462272  -0.057367  -0.061677   7.739972   0.326463   0.003279
     5  H   -0.022639   0.002948  -0.001988   0.326463   0.280469  -0.006707
     6  C    0.003901   0.000323   0.005237   0.003279  -0.006707   4.223613
     7  H    0.000323  -0.000005  -0.000365  -0.000366   0.001359   0.420526
     8  O    0.005237  -0.000365  -0.001803  -0.067251   0.115175   0.585762
     9  O    0.003279  -0.000366  -0.067251   0.000217  -0.000973   0.462272
    10  H   -0.006707   0.001359   0.115175  -0.000973   0.001424  -0.022639
              7          8          9         10
     1  C    0.000323   0.005237   0.003279  -0.006707
     2  H   -0.000005  -0.000365  -0.000366   0.001359
     3  O   -0.000365  -0.001803  -0.067251   0.115175
     4  O   -0.000366  -0.067251   0.000217  -0.000973
     5  H    0.001359   0.115175  -0.000973   0.001424
     6  C    0.420526   0.585762   0.462272  -0.022639
     7  H    0.549107  -0.050961  -0.057367   0.002948
     8  O   -0.050961   7.897004  -0.061677  -0.001988
     9  O   -0.057367  -0.061677   7.739972   0.326463
    10  H    0.002948  -0.001988   0.326463   0.280469
 Mulliken atomic charges:
              1
     1  C    0.324433
     2  H    0.134801
     3  O   -0.419133
     4  O   -0.344570
     5  H    0.304468
     6  C    0.324433
     7  H    0.134801
     8  O   -0.419133
     9  O   -0.344570
    10  H    0.304468
 Sum of Mulliken atomic charges =   0.00000
 Mulliken charges with hydrogens summed into heavy atoms:
              1
     1  C    0.459234
     3  O   -0.419133
     4  O   -0.040102
     6  C    0.459234
     8  O   -0.419133
     9  O   -0.040102
 Sum of Mulliken charges with hydrogens summed into heavy atoms =   0.00000
          Condensed to fragments (all electrons):
     1       0.000000
     2       0.000000
 Electronic spatial extent (au):  <R**2>=            587.6560
 Charge=              0.0000 electrons
 Dipole moment (field-independent basis, Debye):
    X=              0.0000    Y=              0.0000    Z=              0.0000  Tot=              0.0000
 Quadrupole moment (field-independent basis, Debye-Ang):
   XX=            -27.3798   YY=            -42.1390   ZZ=            -33.4807
   XY=             -1.3594   XZ=              0.0000   YZ=              0.0000
 Traceless Quadrupole moment (field-independent basis, Debye-Ang):
   XX=              6.9534   YY=             -7.8058   ZZ=              0.8525
   XY=             -1.3594   XZ=              0.0000   YZ=              0.0000
 Octapole moment (field-independent basis, Debye-Ang**2):
  XXX=              0.0000  YYY=              0.0000  ZZZ=              0.0000  XYY=              0.0000
  XXY=              0.0000  XXZ=              0.0000  XZZ=              0.0000  YZZ=              0.0000
  YYZ=              0.0000  XYZ=              0.0000
 Hexadecapole moment (field-independent basis, Debye-Ang**3):
 XXXX=           -370.2640 YYYY=           -225.6270 ZZZZ=            -26.5778 XXXY=            -15.2214
 XXXZ=              0.0000 YYYX=              7.1107 YYYZ=              0.0000 ZZZX=              0.0000
 ZZZY=              0.0000 XXYY=           -133.4779 XXZZ=            -78.6299 YYZZ=            -41.4178
 XXYZ=              0.0000 YYXZ=              0.0000 ZZXY=              0.5404
 N-N= 2.433606552377D+02 E-N=-1.378946140535D+03  KE= 3.771425978062D+02
 No NMR shielding tensors so no spin-rotation constants.
 Leave Link  601 at Fri Sep  6 17:04:27 2019, MaxMem= 4294967296 cpu:       1.6
 (Enter /opt/g09gh/gaussian/g09/l701.exe)
 Compute integral first derivatives.
 ... and contract with generalized density number  2.
 Leave Link  701 at Fri Sep  6 17:04:28 2019, MaxMem= 4294967296 cpu:       1.8
 (Enter /opt/g09gh/gaussian/g09/l702.exe)
 L702 exits ... SP integral derivatives will be done elsewhere.
 Leave Link  702 at Fri Sep  6 17:04:28 2019, MaxMem= 4294967296 cpu:       0.1
 (Enter /opt/g09gh/gaussian/g09/l703.exe)
 Compute integral first derivatives, UseDBF=F ICtDFT=           0.
 Integral derivatives from FoFDir, PRISM(SPDF).
 Calling FoFJK, ICntrl=      2127 FMM=F ISym2X=0 I1Cent= 0 IOpClX= 0 NMat=1 NMatS=1 NMatT=0.
 FoFCou: FMM=F IPFlag=           0 FMFlag=      100000 FMFlg1=         800
         NFxFlg=           0 DoJE=F BraDBF=F KetDBF=F FulRan=T
         Omega=  0.000000  0.000000  1.000000  0.000000  0.000000 ICntrl=    2127 IOpCl=  0
         NMat0=    1 NMatS0=    1 NMatT0=    0 NMatD0=    1 NMtDS0=    0 NMtDT0=    0
         I1Cent=           0 NGrid=           0.
 Symmetry not used in FoFCou.
 Leave Link  703 at Fri Sep  6 17:04:38 2019, MaxMem= 4294967296 cpu:      85.5
 (Enter /opt/g09gh/gaussian/g09/l716.exe)
 Dipole        =-2.17492691D-13 5.63993297D-14 7.09494072D-16
 Cartesian Forces:  Max     0.038869888 RMS     0.012134048
 Leave Link  716 at Fri Sep  6 17:04:39 2019, MaxMem= 4294967296 cpu:       0.3
 (Enter /opt/g09gh/gaussian/g09/l122.exe)
 Counterpoise: doing DCBS calculation for fragment   1 NewBq=T
 Leave Link  122 at Fri Sep  6 17:04:39 2019, MaxMem= 4294967296 cpu:       0.0
 (Enter /opt/g09gh/gaussian/g09/l301.exe)
 Basis read from rwf:  (5D, 7F)
 No pseudopotential information found on rwf file.
 Integral buffers will be    131072 words long.
 Raffenetti 1 integral format.
 Two-electron integral symmetry is turned off.
   236 basis functions,   380 primitive gaussians,   270 cartesian basis functions
    12 alpha electrons       12 beta electrons
       nuclear repulsion energy        69.3389416925 Hartrees.
 IExCor=    0 DFT=F Ex=HF Corr=None ExCW=0 ScaHFX=  1.000000
 ScaDFX=  1.000000  1.000000  1.000000  1.000000 ScalE2=  1.000000  1.000000
 IRadAn=      0 IRanWt=     -1 IRanGd=            0 ICorTp=0
 NAtoms=   10 NActive=   10 NUniq=   10 SFac= 7.50D-01 NAtFMM=   80 NAOKFM=F Big=F
 No density basis found on file   718.
 Leave Link  301 at Fri Sep  6 17:04:39 2019, MaxMem= 4294967296 cpu:       0.6
 (Enter /opt/g09gh/gaussian/g09/l302.exe)
 NPDir=0 NMtPBC=     1 NCelOv=     1 NCel=       1 NClECP=     1 NCelD=      1
         NCelK=      1 NCelE2=     1 NClLst=     1 CellRange=     0.0.
 One-electron integrals computed using PRISM.
 NBasis=   236 RedAO= T  NBF=   236
 NBsUse=   236 1.00D-06 NBFU=   236
 Leave Link  302 at Fri Sep  6 17:04:39 2019, MaxMem= 4294967296 cpu:       1.8
 (Enter /opt/g09gh/gaussian/g09/l303.exe)
 DipDrv:  MaxL=1.
 Leave Link  303 at Fri Sep  6 17:04:39 2019, MaxMem= 4294967296 cpu:       0.3
 (Enter /opt/g09gh/gaussian/g09/l401.exe)
 Harris functional with IExCor=  205 diagonalized for initial guess.
 ExpMin= 1.03D-01 ExpMax= 1.53D+04 ExpMxC= 5.22D+02 IAcc=1 IRadAn=         1 AccDes= 0.00D+00
 HarFok:  IExCor=  205 AccDes= 0.00D+00 IRadAn=         1 IDoV= 1
 ScaDFX=  1.000000  1.000000  1.000000  1.000000
 FoFCou: FMM=F IPFlag=           0 FMFlag=      100000 FMFlg1=           0
         NFxFlg=           0 DoJE=T BraDBF=F KetDBF=T FulRan=T
         Omega=  0.000000  0.000000  1.000000  0.000000  0.000000 ICntrl=     500 IOpCl=  0
         NMat0=    1 NMatS0=    1 NMatT0=    0 NMatD0=    1 NMtDS0=    0 NMtDT0=    0
         I1Cent=           4 NGrid=           0.
 Symmetry not used in FoFCou.
 Harris En= -188.953937013408    
 Leave Link  401 at Fri Sep  6 17:04:39 2019, MaxMem= 4294967296 cpu:       2.8
 (Enter /opt/g09gh/gaussian/g09/l502.exe)
 Closed shell SCF:
 Requested convergence on RMS density matrix=1.00D-08 within  64 cycles.
 Requested convergence on MAX density matrix=1.00D-06.
 Requested convergence on             energy=1.00D-06.
 No special actions if energy rises.
 Using DIIS extrapolation, IDIIS=  1040.
 Two-electron integral symmetry not used.
 Keep R1 ints in memory in canonical form, NReq=679428577.
 IEnd=      228038 IEndB=      228038 NGot=  4294967296 MDV=  3625567220
 LenX=  3625567220 LenY=  3625493879
 Symmetry not used in FoFDir.
 MinBra= 0 MaxBra= 3 Meth= 1.
 IRaf=       0 NMat=   1 IRICut=       1 DoRegI=T DoRafI=F ISym2E= 0 JSym2E=0.

 Cycle   1  Pass 1  IDiag  1:
 E= -188.701079026164    
 DIIS: error= 2.42D-02 at cycle   1 NSaved=   1.
 NSaved= 1 IEnMin= 1 EnMin= -188.701079026164     IErMin= 1 ErrMin= 2.42D-02
 ErrMax= 2.42D-02 EMaxC= 1.00D-01 BMatC= 3.43D-01 BMatP= 3.43D-01
 IDIUse=3 WtCom= 7.58D-01 WtEn= 2.42D-01
 Coeff-Com:  0.100D+01
 Coeff-En:   0.100D+01
 Coeff:      0.100D+01
 Gap=     0.565 Goal=   None    Shift=    0.000
 GapD=    0.565 DampG=2.000 DampE=0.500 DampFc=1.0000 IDamp=-1.
 RMSDP=1.18D-03 MaxDP=4.63D-02              OVMax= 1.40D-01

 Cycle   2  Pass 1  IDiag  1:
 E= -188.787521832816     Delta-E=       -0.086442806651 Rises=F Damp=F
 DIIS: error= 1.00D-02 at cycle   2 NSaved=   2.
 NSaved= 2 IEnMin= 2 EnMin= -188.787521832816     IErMin= 2 ErrMin= 1.00D-02
 ErrMax= 1.00D-02 EMaxC= 1.00D-01 BMatC= 6.10D-02 BMatP= 3.43D-01
 IDIUse=3 WtCom= 9.00D-01 WtEn= 1.00D-01
 Coeff-Com:  0.231D+00 0.769D+00
 Coeff-En:   0.000D+00 0.100D+01
 Coeff:      0.208D+00 0.792D+00
 Gap=     0.585 Goal=   None    Shift=    0.000
 RMSDP=6.49D-04 MaxDP=2.75D-02 DE=-8.64D-02 OVMax= 6.34D-02

 Cycle   3  Pass 1  IDiag  1:
 E= -188.819735340088     Delta-E=       -0.032213507273 Rises=F Damp=F
 DIIS: error= 5.37D-03 at cycle   3 NSaved=   3.
 NSaved= 3 IEnMin= 3 EnMin= -188.819735340088     IErMin= 3 ErrMin= 5.37D-03
 ErrMax= 5.37D-03 EMaxC= 1.00D-01 BMatC= 1.03D-02 BMatP= 6.10D-02
 IDIUse=3 WtCom= 9.46D-01 WtEn= 5.37D-02
 Coeff-Com: -0.235D-01 0.269D+00 0.754D+00
 Coeff-En:   0.000D+00 0.000D+00 0.100D+01
 Coeff:     -0.222D-01 0.255D+00 0.767D+00
 Gap=     0.549 Goal=   None    Shift=    0.000
 RMSDP=1.83D-04 MaxDP=9.46D-03 DE=-3.22D-02 OVMax= 3.18D-02

 Cycle   4  Pass 1  IDiag  1:
 E= -188.826172512993     Delta-E=       -0.006437172905 Rises=F Damp=F
 DIIS: error= 8.20D-04 at cycle   4 NSaved=   4.
 NSaved= 4 IEnMin= 4 EnMin= -188.826172512993     IErMin= 4 ErrMin= 8.20D-04
 ErrMax= 8.20D-04 EMaxC= 1.00D-01 BMatC= 3.21D-04 BMatP= 1.03D-02
 IDIUse=3 WtCom= 9.92D-01 WtEn= 8.20D-03
 Coeff-Com: -0.127D-01 0.610D-01 0.243D+00 0.709D+00
 Coeff-En:   0.000D+00 0.000D+00 0.000D+00 0.100D+01
 Coeff:     -0.126D-01 0.605D-01 0.241D+00 0.711D+00
 Gap=     0.547 Goal=   None    Shift=    0.000
 RMSDP=4.09D-05 MaxDP=1.51D-03 DE=-6.44D-03 OVMax= 4.38D-03

 Cycle   5  Pass 1  IDiag  1:
 E= -188.826437473686     Delta-E=       -0.000264960693 Rises=F Damp=F
 DIIS: error= 3.87D-04 at cycle   5 NSaved=   5.
 NSaved= 5 IEnMin= 5 EnMin= -188.826437473686     IErMin= 5 ErrMin= 3.87D-04
 ErrMax= 3.87D-04 EMaxC= 1.00D-01 BMatC= 2.26D-05 BMatP= 3.21D-04
 IDIUse=3 WtCom= 9.96D-01 WtEn= 3.87D-03
 Coeff-Com:  0.262D-02-0.265D-01-0.830D-01-0.350D-02 0.111D+01
 Coeff-En:   0.000D+00 0.000D+00 0.000D+00 0.000D+00 0.100D+01
 Coeff:      0.261D-02-0.264D-01-0.827D-01-0.348D-02 0.111D+01
 Gap=     0.547 Goal=   None    Shift=    0.000
 RMSDP=2.36D-05 MaxDP=9.37D-04 DE=-2.65D-04 OVMax= 3.73D-03

 Cycle   6  Pass 1  IDiag  1:
 E= -188.826488955843     Delta-E=       -0.000051482157 Rises=F Damp=F
 DIIS: error= 1.10D-04 at cycle   6 NSaved=   6.
 NSaved= 6 IEnMin= 6 EnMin= -188.826488955843     IErMin= 6 ErrMin= 1.10D-04
 ErrMax= 1.10D-04 EMaxC= 1.00D-01 BMatC= 4.41D-06 BMatP= 2.26D-05
 IDIUse=3 WtCom= 9.99D-01 WtEn= 1.10D-03
 Coeff-Com:  0.198D-02-0.132D-01-0.449D-01-0.110D+00 0.192D+00 0.974D+00
 Coeff-En:   0.000D+00 0.000D+00 0.000D+00 0.000D+00 0.000D+00 0.100D+01
 Coeff:      0.198D-02-0.132D-01-0.448D-01-0.110D+00 0.192D+00 0.974D+00
 Gap=     0.549 Goal=   None    Shift=    0.000
 RMSDP=1.08D-05 MaxDP=3.09D-04 DE=-5.15D-05 OVMax= 1.45D-03

 Cycle   7  Pass 1  IDiag  1:
 E= -188.826498420409     Delta-E=       -0.000009464566 Rises=F Damp=F
 DIIS: error= 4.23D-05 at cycle   7 NSaved=   7.
 NSaved= 7 IEnMin= 7 EnMin= -188.826498420409     IErMin= 7 ErrMin= 4.23D-05
 ErrMax= 4.23D-05 EMaxC= 1.00D-01 BMatC= 5.66D-07 BMatP= 4.41D-06
 IDIUse=1 WtCom= 1.00D+00 WtEn= 0.00D+00
 Coeff-Com: -0.566D-03 0.508D-02 0.203D-01 0.696D-02-0.169D+00-0.138D+00
 Coeff-Com:  0.128D+01
 Coeff:     -0.566D-03 0.508D-02 0.203D-01 0.696D-02-0.169D+00-0.138D+00
 Coeff:      0.128D+01
 Gap=     0.549 Goal=   None    Shift=    0.000
 RMSDP=4.89D-06 MaxDP=1.76D-04 DE=-9.46D-06 OVMax= 8.38D-04

 Cycle   8  Pass 1  IDiag  1:
 E= -188.826500076799     Delta-E=       -0.000001656390 Rises=F Damp=F
 DIIS: error= 1.21D-05 at cycle   8 NSaved=   8.
 NSaved= 8 IEnMin= 8 EnMin= -188.826500076799     IErMin= 8 ErrMin= 1.21D-05
 ErrMax= 1.21D-05 EMaxC= 1.00D-01 BMatC= 4.65D-08 BMatP= 5.66D-07
 IDIUse=1 WtCom= 1.00D+00 WtEn= 0.00D+00
 Coeff-Com: -0.509D-04 0.109D-04-0.442D-03 0.428D-02 0.240D-01-0.278D-01
 Coeff-Com: -0.390D+00 0.139D+01
 Coeff:     -0.509D-04 0.109D-04-0.442D-03 0.428D-02 0.240D-01-0.278D-01
 Coeff:     -0.390D+00 0.139D+01
 Gap=     0.549 Goal=   None    Shift=    0.000
 RMSDP=1.70D-06 MaxDP=6.92D-05 DE=-1.66D-06 OVMax= 3.24D-04

 Cycle   9  Pass 1  IDiag  1:
 E= -188.826500251547     Delta-E=       -0.000000174747 Rises=F Damp=F
 DIIS: error= 4.06D-06 at cycle   9 NSaved=   9.
 NSaved= 9 IEnMin= 9 EnMin= -188.826500251547     IErMin= 9 ErrMin= 4.06D-06
 ErrMax= 4.06D-06 EMaxC= 1.00D-01 BMatC= 4.71D-09 BMatP= 4.65D-08
 IDIUse=1 WtCom= 1.00D+00 WtEn= 0.00D+00
 Coeff-Com:  0.637D-04-0.501D-03-0.153D-02-0.316D-02 0.101D-01 0.238D-01
 Coeff-Com: -0.578D-02-0.420D+00 0.140D+01
 Coeff:      0.637D-04-0.501D-03-0.153D-02-0.316D-02 0.101D-01 0.238D-01
 Coeff:     -0.578D-02-0.420D+00 0.140D+01
 Gap=     0.549 Goal=   None    Shift=    0.000
 RMSDP=4.84D-07 MaxDP=2.14D-05 DE=-1.75D-07 OVMax= 8.14D-05

 Cycle  10  Pass 1  IDiag  1:
 E= -188.826500265480     Delta-E=       -0.000000013933 Rises=F Damp=F
 DIIS: error= 9.46D-07 at cycle  10 NSaved=  10.
 NSaved=10 IEnMin=10 EnMin= -188.826500265480     IErMin=10 ErrMin= 9.46D-07
 ErrMax= 9.46D-07 EMaxC= 1.00D-01 BMatC= 2.70D-10 BMatP= 4.71D-09
 IDIUse=1 WtCom= 1.00D+00 WtEn= 0.00D+00
 Coeff-Com: -0.397D-05 0.541D-04 0.318D-03-0.156D-03-0.381D-02-0.980D-03
 Coeff-Com:  0.401D-01-0.744D-01-0.168D+00 0.121D+01
 Coeff:     -0.397D-05 0.541D-04 0.318D-03-0.156D-03-0.381D-02-0.980D-03
 Coeff:      0.401D-01-0.744D-01-0.168D+00 0.121D+01
 Gap=     0.549 Goal=   None    Shift=    0.000
 RMSDP=9.95D-08 MaxDP=4.24D-06 DE=-1.39D-08 OVMax= 1.38D-05

 Cycle  11  Pass 1  IDiag  1:
 E= -188.826500266079     Delta-E=       -0.000000000599 Rises=F Damp=F
 DIIS: error= 1.72D-07 at cycle  11 NSaved=  11.
 NSaved=11 IEnMin=11 EnMin= -188.826500266079     IErMin=11 ErrMin= 1.72D-07
 ErrMax= 1.72D-07 EMaxC= 1.00D-01 BMatC= 7.65D-12 BMatP= 2.70D-10
 IDIUse=1 WtCom= 1.00D+00 WtEn= 0.00D+00
 Coeff-Com: -0.198D-05 0.136D-04 0.955D-05 0.159D-03 0.149D-03-0.264D-03
 Coeff-Com: -0.841D-02 0.331D-01-0.230D-01-0.265D+00 0.126D+01
 Coeff:     -0.198D-05 0.136D-04 0.955D-05 0.159D-03 0.149D-03-0.264D-03
 Coeff:     -0.841D-02 0.331D-01-0.230D-01-0.265D+00 0.126D+01
 Gap=     0.549 Goal=   None    Shift=    0.000
 RMSDP=1.76D-08 MaxDP=6.68D-07 DE=-5.99D-10 OVMax= 1.98D-06

 Cycle  12  Pass 1  IDiag  1:
 E= -188.826500266098     Delta-E=       -0.000000000019 Rises=F Damp=F
 DIIS: error= 2.96D-08 at cycle  12 NSaved=  12.
 NSaved=12 IEnMin=12 EnMin= -188.826500266098     IErMin=12 ErrMin= 2.96D-08
 ErrMax= 2.96D-08 EMaxC= 1.00D-01 BMatC= 2.87D-13 BMatP= 7.65D-12
 IDIUse=1 WtCom= 1.00D+00 WtEn= 0.00D+00
 Coeff-Com:  0.470D-06-0.426D-05-0.842D-05-0.432D-04 0.643D-04 0.143D-03
 Coeff-Com:  0.877D-03-0.601D-02 0.104D-01 0.279D-01-0.316D+00 0.128D+01
 Coeff:      0.470D-06-0.426D-05-0.842D-05-0.432D-04 0.643D-04 0.143D-03
 Coeff:      0.877D-03-0.601D-02 0.104D-01 0.279D-01-0.316D+00 0.128D+01
 Gap=     0.549 Goal=   None    Shift=    0.000
 RMSDP=3.43D-09 MaxDP=1.10D-07 DE=-1.92D-11 OVMax= 3.28D-07

 SCF Done:  E(RHF) =  -188.826500266     A.U. after   12 cycles
             Convg  =    0.3427D-08             -V/T =  2.0025
 KE= 1.883493369309D+02 PE=-5.847580470456D+02 EE= 1.382432681561D+02
 Leave Link  502 at Fri Sep  6 17:05:15 2019, MaxMem= 4294967296 cpu:     283.1
 (Enter /opt/g09gh/gaussian/g09/l801.exe)
 ExpMin= 1.03D-01 ExpMax= 1.53D+04 ExpMxC= 5.22D+02 IAcc=1 IRadAn=         1 AccDes= 0.00D+00
 HarFok:  IExCor=  205 AccDes= 0.00D+00 IRadAn=         1 IDoV=-2
 ScaDFX=  1.000000  1.000000  1.000000  1.000000
 Largest valence mixing into a core orbital is  2.19D-04
 Largest core mixing into a valence orbital is  2.57D-05
 Range of M.O.s used for correlation:     4   236
 NBasis=   236 NAE=    12 NBE=    12 NFC=     3 NFV=     0
 NROrb=    233 NOA=     9 NOB=     9 NVA=   224 NVB=   224
 Leave Link  801 at Fri Sep  6 17:05:15 2019, MaxMem= 4294967296 cpu:       0.3
 (Enter /opt/g09gh/gaussian/g09/l906.exe)
 Frozen-core derivative calculation, NFC=   3 NFV=   0.
 FulOut=F Deriv=T AODrv=T NAtomX=    10
   MMem=         442  MDisk=           9 MDiskD=           9
  W3Min=      764640 MinDsk=     1547825 NBas6D=         270
 NBas2D=       37173    NTT=       36585    LW2=     3500000
    MDV=  4294301122 MDiskM=       79487 NBas2p=       35827
 Fully direct method using O(ONN) memory.
 IMap=   1   2   3   4   5   6   7   8   9  10  11  12
 JobTyp=1 Pass  1:  I=   4 to  12 NPSUse=  8 ParTrn=T ParDer=T DoDerP=T.
 Spin components of T(2) and E(2):
     alpha-alpha T2 =       0.2217165722D-01 E2=     -0.8179847626D-01
     alpha-beta  T2 =       0.1213723947D+00 E2=     -0.4740752045D+00
     beta-beta   T2 =       0.2217165722D-01 E2=     -0.8179847626D-01
 The integrals were generated   1 times.
 ANorm=    0.1079683152D+01
 E2 =    -0.6376721570D+00 EUMP2 =    -0.18946417242313D+03
 Leave Link  906 at Fri Sep  6 17:05:45 2019, MaxMem= 4294967296 cpu:     237.1
 (Enter /opt/g09gh/gaussian/g09/l1002.exe)
 Minotr:  Closed shell wavefunction.
          Computing MP2/KS-MP2 derivatives.
          Using Z-Vector for PSCF gradient.
          Skipping F1 and S1 gradient terms here.
          IDoAtm=1111111111
          Frozen-core window.
          Direct CPHF calculation.
          Differentiating once with respect to electric field.
                with respect to dipole field.
          Differentiating once with respect to nuclear coordinates.
          Requested convergence is 1.0D-10 RMS, and 1.0D-09 maximum.
          NewPWx=F KeepS1=T KeepF1=T KeepIn=T MapXYZ=F SortEE=F KeepMc=T.
          MDV=    4294967192 using IRadAn=       0.
          Keep R1 ints in memory in canonical form, NReq=671191012.
 Symmetry not used in FoFDir.
 MinBra= 0 MaxBra= 3 Meth= 1.
 IRaf=       0 NMat=   1 IRICut=       1 DoRegI=T DoRafI=F ISym2E= 0 JSym2E=0.
          Solving linear equations separately, MaxMat=       0.
          There are     1 degrees of freedom in the 1st order CPHF.  IDoFFX=0.
 LinEq1:  Iter=  0 NonCon=     1 RMS=4.52D-03 Max=1.40D-01
 AX will form     1 AO Fock derivatives at one time.
 LinEq1:  Iter=  1 NonCon=     1 RMS=1.19D-03 Max=2.14D-02
 LinEq1:  Iter=  2 NonCon=     1 RMS=4.64D-04 Max=6.27D-03
 LinEq1:  Iter=  3 NonCon=     1 RMS=2.09D-04 Max=3.23D-03
 LinEq1:  Iter=  4 NonCon=     1 RMS=4.99D-05 Max=7.47D-04
 LinEq1:  Iter=  5 NonCon=     1 RMS=1.79D-05 Max=2.97D-04
 LinEq1:  Iter=  6 NonCon=     1 RMS=6.20D-06 Max=1.45D-04
 LinEq1:  Iter=  7 NonCon=     1 RMS=1.37D-06 Max=3.02D-05
 LinEq1:  Iter=  8 NonCon=     1 RMS=2.59D-07 Max=3.34D-06
 LinEq1:  Iter=  9 NonCon=     1 RMS=4.11D-08 Max=4.65D-07
 LinEq1:  Iter= 10 NonCon=     1 RMS=7.88D-09 Max=9.74D-08
 LinEq1:  Iter= 11 NonCon=     1 RMS=1.48D-09 Max=1.31D-08
 LinEq1:  Iter= 12 NonCon=     1 RMS=2.06D-10 Max=1.86D-09
 LinEq1:  Iter= 13 NonCon=     0 RMS=3.19D-11 Max=4.22D-10
 Linear equations converged to 1.000D-10 1.000D-09 after    13 iterations.
 End of Minotr Frequency-dependent properties file   721 does not exist.
 End of Minotr Frequency-dependent properties file   722 does not exist.
 Leave Link 1002 at Fri Sep  6 17:06:25 2019, MaxMem= 4294967296 cpu:     319.7
 (Enter /opt/g09gh/gaussian/g09/l601.exe)
 Copying SCF densities to generalized density rwf, IOpCl= 0 IROHF=0.

 **********************************************************************

            Population analysis using the SCF density.

 **********************************************************************

 Alpha  occ. eigenvalues --  -20.65046 -20.55683 -11.39727  -1.48216  -1.36039
 Alpha  occ. eigenvalues --   -0.89710  -0.72753  -0.70809  -0.64808  -0.58648
 Alpha  occ. eigenvalues --   -0.48565  -0.46103
 Alpha virt. eigenvalues --    0.08817   0.15621   0.16251   0.17277   0.21241
 Alpha virt. eigenvalues --    0.26242   0.28696   0.31913   0.34082   0.35634
 Alpha virt. eigenvalues --    0.38631   0.43139   0.47407   0.50854   0.54739
 Alpha virt. eigenvalues --    0.57456   0.58948   0.63251   0.64314   0.64810
 Alpha virt. eigenvalues --    0.67666   0.68845   0.71544   0.72772   0.76031
 Alpha virt. eigenvalues --    0.77700   0.79627   0.85033   0.87054   0.89712
 Alpha virt. eigenvalues --    0.92797   0.95255   0.95305   0.98462   1.01806
 Alpha virt. eigenvalues --    1.02535   1.06492   1.11724   1.13931   1.17927
 Alpha virt. eigenvalues --    1.18046   1.21968   1.22530   1.26594   1.29578
 Alpha virt. eigenvalues --    1.30129   1.35782   1.39037   1.41912   1.45760
 Alpha virt. eigenvalues --    1.48283   1.56291   1.56790   1.64135   1.68261
 Alpha virt. eigenvalues --    1.72896   1.78873   1.82852   1.85336   1.96853
 Alpha virt. eigenvalues --    2.00007   2.02550   2.12243   2.13602   2.17301
 Alpha virt. eigenvalues --    2.20572   2.21702   2.28116   2.28289   2.33974
 Alpha virt. eigenvalues --    2.35036   2.41244   2.42849   2.46285   2.50465
 Alpha virt. eigenvalues --    2.52068   2.61020   2.65772   2.67124   2.69316
 Alpha virt. eigenvalues --    2.72269   2.77732   2.79227   2.84944   2.86633
 Alpha virt. eigenvalues --    2.87188   2.90738   2.95879   2.98800   3.06571
 Alpha virt. eigenvalues --    3.10843   3.22040   3.24556   3.25044   3.28455
 Alpha virt. eigenvalues --    3.31334   3.34777   3.41361   3.44365   3.49672
 Alpha virt. eigenvalues --    3.53613   3.56169   3.59487   3.60372   3.61708
 Alpha virt. eigenvalues --    3.61805   3.65616   3.70749   3.74995   3.80336
 Alpha virt. eigenvalues --    3.84380   3.90967   3.91731   3.99340   3.99583
 Alpha virt. eigenvalues --    4.02689   4.06568   4.11561   4.16657   4.17738
 Alpha virt. eigenvalues --    4.23459   4.27744   4.31689   4.38176   4.39924
 Alpha virt. eigenvalues --    4.40647   4.44148   4.45467   4.47373   4.53091
 Alpha virt. eigenvalues --    4.55676   4.56971   4.61239   4.63396   4.64754
 Alpha virt. eigenvalues --    4.66933   4.70942   4.76883   4.78817   4.87554
 Alpha virt. eigenvalues --    4.89254   4.97912   4.98593   5.02968   5.12044
 Alpha virt. eigenvalues --    5.18345   5.21207   5.28296   5.35689   5.38419
 Alpha virt. eigenvalues --    5.48171   5.67456   5.67986   5.74698   5.78344
 Alpha virt. eigenvalues --    5.82043   5.85892   5.90052   5.96601   6.00023
 Alpha virt. eigenvalues --    6.08526   6.08782   6.18602   6.24531   6.33159
 Alpha virt. eigenvalues --    6.39854   6.49980   6.52372   6.60684   6.65355
 Alpha virt. eigenvalues --    6.71489   6.83645   6.86134   6.91188   6.93677
 Alpha virt. eigenvalues --    6.97041   7.01350   7.06507   7.11283   7.20262
 Alpha virt. eigenvalues --    7.20798   7.26442   7.27782   7.38365   7.39787
 Alpha virt. eigenvalues --    7.44787   7.56160   7.58683   7.64822   7.71773
 Alpha virt. eigenvalues --    7.73165   7.79541   7.88832   7.95431   8.05505
 Alpha virt. eigenvalues --    8.16671   8.37791   8.49114   8.59751   8.70635
 Alpha virt. eigenvalues --    9.38403   9.48277   9.51540   9.66353   9.70128
 Alpha virt. eigenvalues --    9.73443   9.84900  10.12623  10.23916  10.43593
 Alpha virt. eigenvalues --   10.62090  10.82335  11.06711  11.30109  11.42149
 Alpha virt. eigenvalues --   12.01638  12.63416  12.76837  13.46700  13.53223
 Alpha virt. eigenvalues --   13.98248  39.90273  58.32456  59.32350
          Condensed to atoms (all electrons):
              1          2          3          4          5          6
     1  C    4.263417   0.416081   0.656555   0.398396  -0.030862   0.001793
     2  H    0.416081   0.556882  -0.049961  -0.059947   0.005688   0.000401
     3  O    0.656555  -0.049961   7.798628  -0.068144  -0.001424   0.004791
     4  O    0.398396  -0.059947  -0.068144   7.692598   0.334354   0.002174
     5  H   -0.030862   0.005688  -0.001424   0.334354   0.386662   0.006823
     6  C    0.001793   0.000401   0.004791   0.002174   0.006823   0.006318
     7  H   -0.000010   0.000009   0.000264   0.000095   0.000352  -0.000211
     8  O   -0.000127   0.000006  -0.000567  -0.001639  -0.002424  -0.001819
     9  O    0.000429  -0.000040   0.001627  -0.000451  -0.000450  -0.001280
    10  H   -0.008743   0.001996   0.040404  -0.001658   0.001419  -0.000411
              7          8          9         10
     1  C   -0.000010  -0.000127   0.000429  -0.008743
     2  H    0.000009   0.000006  -0.000040   0.001996
     3  O    0.000264  -0.000567   0.001627   0.040404
     4  O    0.000095  -0.001639  -0.000451  -0.001658
     5  H    0.000352  -0.002424  -0.000450   0.001419
     6  C   -0.000211  -0.001819  -0.001280  -0.000411
     7  H    0.001408  -0.000598  -0.000249   0.000163
     8  O   -0.000598   0.001490   0.000280  -0.000079
     9  O   -0.000249   0.000280   0.001456  -0.000338
    10  H    0.000163  -0.000079  -0.000338   0.005796
 Mulliken atomic charges:
              1
     1  C    0.303070
     2  H    0.128884
     3  O   -0.382174
     4  O   -0.295780
     5  H    0.299860
     6  C   -0.018581
     7  H   -0.001223
     8  O    0.005477
     9  O   -0.000984
    10  H   -0.038550
 Sum of Mulliken atomic charges =   0.00000
 Mulliken charges with hydrogens summed into heavy atoms:
              1
     1  C    0.431954
     3  O   -0.382174
     4  O    0.004080
     6  C   -0.019804
     8  O    0.005477
     9  O   -0.039534
 Sum of Mulliken charges with hydrogens summed into heavy atoms =   0.00000
          Condensed to fragments (all electrons):
     1       0.053860
     2      -0.053860
 Electronic spatial extent (au):  <R**2>=            293.9246
 Charge=              0.0000 electrons
 Dipole moment (field-independent basis, Debye):
    X=              0.1951    Y=              2.4577    Z=              0.0000  Tot=              2.4654
 Quadrupole moment (field-independent basis, Debye-Ang):
   XX=            -13.6159   YY=            -21.0444   ZZ=            -16.9692
   XY=             -0.6381   XZ=              0.0000   YZ=              0.0000
 Traceless Quadrupole moment (field-independent basis, Debye-Ang):
   XX=              3.5940   YY=             -3.8346   ZZ=              0.2406
   XY=             -0.6381   XZ=              0.0000   YZ=              0.0000
 Octapole moment (field-independent basis, Debye-Ang**2):
  XXX=            -57.3490  YYY=              9.0236  ZZZ=              0.0000  XYY=            -31.0836
  XXY=             -1.7688  XXZ=              0.0000  XZZ=            -23.2270  YZZ=              1.2935
  YYZ=              0.0000  XYZ=              0.0000
 Hexadecapole moment (field-independent basis, Debye-Ang**3):
 XXXX=           -186.5226 YYYY=           -113.7021 ZZZZ=            -13.7529 XXXY=             -6.0191
 XXXZ=              0.0000 YYYX=              3.1345 YYYZ=              0.0000 ZZZX=              0.0000
 ZZZY=              0.0000 XXYY=            -66.1700 XXZZ=            -39.7374 YYZZ=            -20.9076
 XXYZ=              0.0000 YYXZ=              0.0000 ZZXY=              0.4033
 N-N= 6.933894169247D+01 E-N=-5.847580466521D+02  KE= 1.883493369309D+02
 No NMR shielding tensors so no spin-rotation constants.
 Leave Link  601 at Fri Sep  6 17:06:25 2019, MaxMem= 4294967296 cpu:       1.7
 (Enter /opt/g09gh/gaussian/g09/l701.exe)
 Compute integral first derivatives.
 ... and contract with generalized density number  2.
 Leave Link  701 at Fri Sep  6 17:06:26 2019, MaxMem= 4294967296 cpu:       1.9
 (Enter /opt/g09gh/gaussian/g09/l702.exe)
 L702 exits ... SP integral derivatives will be done elsewhere.
 Leave Link  702 at Fri Sep  6 17:06:26 2019, MaxMem= 4294967296 cpu:       0.1
 (Enter /opt/g09gh/gaussian/g09/l703.exe)
 Compute integral first derivatives, UseDBF=F ICtDFT=           0.
 Integral derivatives from FoFDir, PRISM(SPDF).
 Calling FoFJK, ICntrl=      2127 FMM=F ISym2X=0 I1Cent= 0 IOpClX= 0 NMat=1 NMatS=1 NMatT=0.
 FoFCou: FMM=F IPFlag=           0 FMFlag=      100000 FMFlg1=         800
         NFxFlg=           0 DoJE=F BraDBF=F KetDBF=F FulRan=T
         Omega=  0.000000  0.000000  1.000000  0.000000  0.000000 ICntrl=    2127 IOpCl=  0
         NMat0=    1 NMatS0=    1 NMatT0=    0 NMatD0=    1 NMtDS0=    0 NMtDT0=    0
         I1Cent=           0 NGrid=           0.
 Symmetry not used in FoFCou.
 Leave Link  703 at Fri Sep  6 17:06:34 2019, MaxMem= 4294967296 cpu:      68.8
 (Enter /opt/g09gh/gaussian/g09/l716.exe)
 Dipole        = 3.09150535D-03 8.34816477D-01-9.57145668D-16
 Cartesian Forces:  Max     0.082661600 RMS     0.024269093
 Leave Link  716 at Fri Sep  6 17:06:34 2019, MaxMem= 4294967296 cpu:       0.3
 (Enter /opt/g09gh/gaussian/g09/l122.exe)
 Counterpoise: doing DCBS calculation for fragment   2 NewBq=T
 Leave Link  122 at Fri Sep  6 17:06:34 2019, MaxMem= 4294967296 cpu:       0.0
 (Enter /opt/g09gh/gaussian/g09/l301.exe)
 Basis read from rwf:  (5D, 7F)
 No pseudopotential information found on rwf file.
 Integral buffers will be    131072 words long.
 Raffenetti 1 integral format.
 Two-electron integral symmetry is turned off.
   236 basis functions,   380 primitive gaussians,   270 cartesian basis functions
    12 alpha electrons       12 beta electrons
       nuclear repulsion energy        69.3389416925 Hartrees.
 IExCor=    0 DFT=F Ex=HF Corr=None ExCW=0 ScaHFX=  1.000000
 ScaDFX=  1.000000  1.000000  1.000000  1.000000 ScalE2=  1.000000  1.000000
 IRadAn=      0 IRanWt=     -1 IRanGd=            0 ICorTp=0
 NAtoms=   10 NActive=   10 NUniq=   10 SFac= 7.50D-01 NAtFMM=   80 NAOKFM=F Big=F
 No density basis found on file   718.
 Leave Link  301 at Fri Sep  6 17:06:35 2019, MaxMem= 4294967296 cpu:       0.5
 (Enter /opt/g09gh/gaussian/g09/l302.exe)
 NPDir=0 NMtPBC=     1 NCelOv=     1 NCel=       1 NClECP=     1 NCelD=      1
         NCelK=      1 NCelE2=     1 NClLst=     1 CellRange=     0.0.
 One-electron integrals computed using PRISM.
 NBasis=   236 RedAO= T  NBF=   236
 NBsUse=   236 1.00D-06 NBFU=   236
 Leave Link  302 at Fri Sep  6 17:06:35 2019, MaxMem= 4294967296 cpu:       1.8
 (Enter /opt/g09gh/gaussian/g09/l303.exe)
 DipDrv:  MaxL=1.
 Leave Link  303 at Fri Sep  6 17:06:35 2019, MaxMem= 4294967296 cpu:       0.3
 (Enter /opt/g09gh/gaussian/g09/l401.exe)
 Harris functional with IExCor=  205 diagonalized for initial guess.
 ExpMin= 1.03D-01 ExpMax= 1.53D+04 ExpMxC= 5.22D+02 IAcc=1 IRadAn=         1 AccDes= 0.00D+00
 HarFok:  IExCor=  205 AccDes= 0.00D+00 IRadAn=         1 IDoV= 1
 ScaDFX=  1.000000  1.000000  1.000000  1.000000
 FoFCou: FMM=F IPFlag=           0 FMFlag=      100000 FMFlg1=           0
         NFxFlg=           0 DoJE=T BraDBF=F KetDBF=T FulRan=T
         Omega=  0.000000  0.000000  1.000000  0.000000  0.000000 ICntrl=     500 IOpCl=  0
         NMat0=    1 NMatS0=    1 NMatT0=    0 NMatD0=    1 NMtDS0=    0 NMtDT0=    0
         I1Cent=           4 NGrid=           0.
 Symmetry not used in FoFCou.
 Harris En= -188.953937013408    
 Leave Link  401 at Fri Sep  6 17:06:35 2019, MaxMem= 4294967296 cpu:       2.8
 (Enter /opt/g09gh/gaussian/g09/l502.exe)
 Closed shell SCF:
 Requested convergence on RMS density matrix=1.00D-08 within  64 cycles.
 Requested convergence on MAX density matrix=1.00D-06.
 Requested convergence on             energy=1.00D-06.
 No special actions if energy rises.
 Using DIIS extrapolation, IDIIS=  1040.
 Two-electron integral symmetry not used.
 Keep R1 ints in memory in canonical form, NReq=679428577.
 IEnd=      228038 IEndB=      228038 NGot=  4294967296 MDV=  3625567220
 LenX=  3625567220 LenY=  3625493879
 Symmetry not used in FoFDir.
 MinBra= 0 MaxBra= 3 Meth= 1.
 IRaf=       0 NMat=   1 IRICut=       1 DoRegI=T DoRafI=F ISym2E= 0 JSym2E=0.

 Cycle   1  Pass 1  IDiag  1:
 E= -188.701079026163    
 DIIS: error= 2.42D-02 at cycle   1 NSaved=   1.
 NSaved= 1 IEnMin= 1 EnMin= -188.701079026163     IErMin= 1 ErrMin= 2.42D-02
 ErrMax= 2.42D-02 EMaxC= 1.00D-01 BMatC= 3.43D-01 BMatP= 3.43D-01
 IDIUse=3 WtCom= 7.58D-01 WtEn= 2.42D-01
 Coeff-Com:  0.100D+01
 Coeff-En:   0.100D+01
 Coeff:      0.100D+01
 Gap=     0.565 Goal=   None    Shift=    0.000
 GapD=    0.565 DampG=2.000 DampE=0.500 DampFc=1.0000 IDamp=-1.
 RMSDP=1.18D-03 MaxDP=4.63D-02              OVMax= 1.40D-01

 Cycle   2  Pass 1  IDiag  1:
 E= -188.787521832817     Delta-E=       -0.086442806653 Rises=F Damp=F
 DIIS: error= 1.00D-02 at cycle   2 NSaved=   2.
 NSaved= 2 IEnMin= 2 EnMin= -188.787521832817     IErMin= 2 ErrMin= 1.00D-02
 ErrMax= 1.00D-02 EMaxC= 1.00D-01 BMatC= 6.10D-02 BMatP= 3.43D-01
 IDIUse=3 WtCom= 9.00D-01 WtEn= 1.00D-01
 Coeff-Com:  0.231D+00 0.769D+00
 Coeff-En:   0.000D+00 0.100D+01
 Coeff:      0.208D+00 0.792D+00
 Gap=     0.585 Goal=   None    Shift=    0.000
 RMSDP=6.49D-04 MaxDP=2.75D-02 DE=-8.64D-02 OVMax= 6.34D-02

 Cycle   3  Pass 1  IDiag  1:
 E= -188.819735340089     Delta-E=       -0.032213507272 Rises=F Damp=F
 DIIS: error= 5.37D-03 at cycle   3 NSaved=   3.
 NSaved= 3 IEnMin= 3 EnMin= -188.819735340089     IErMin= 3 ErrMin= 5.37D-03
 ErrMax= 5.37D-03 EMaxC= 1.00D-01 BMatC= 1.03D-02 BMatP= 6.10D-02
 IDIUse=3 WtCom= 9.46D-01 WtEn= 5.37D-02
 Coeff-Com: -0.235D-01 0.269D+00 0.754D+00
 Coeff-En:   0.000D+00 0.000D+00 0.100D+01
 Coeff:     -0.222D-01 0.255D+00 0.767D+00
 Gap=     0.549 Goal=   None    Shift=    0.000
 RMSDP=1.83D-04 MaxDP=9.46D-03 DE=-3.22D-02 OVMax= 3.18D-02

 Cycle   4  Pass 1  IDiag  1:
 E= -188.826172512993     Delta-E=       -0.006437172904 Rises=F Damp=F
 DIIS: error= 8.20D-04 at cycle   4 NSaved=   4.
 NSaved= 4 IEnMin= 4 EnMin= -188.826172512993     IErMin= 4 ErrMin= 8.20D-04
 ErrMax= 8.20D-04 EMaxC= 1.00D-01 BMatC= 3.21D-04 BMatP= 1.03D-02
 IDIUse=3 WtCom= 9.92D-01 WtEn= 8.20D-03
 Coeff-Com: -0.127D-01 0.610D-01 0.243D+00 0.709D+00
 Coeff-En:   0.000D+00 0.000D+00 0.000D+00 0.100D+01
 Coeff:     -0.126D-01 0.605D-01 0.241D+00 0.711D+00
 Gap=     0.547 Goal=   None    Shift=    0.000
 RMSDP=4.09D-05 MaxDP=1.51D-03 DE=-6.44D-03 OVMax= 4.38D-03

 Cycle   5  Pass 1  IDiag  1:
 E= -188.826437473686     Delta-E=       -0.000264960694 Rises=F Damp=F
 DIIS: error= 3.87D-04 at cycle   5 NSaved=   5.
 NSaved= 5 IEnMin= 5 EnMin= -188.826437473686     IErMin= 5 ErrMin= 3.87D-04
 ErrMax= 3.87D-04 EMaxC= 1.00D-01 BMatC= 2.26D-05 BMatP= 3.21D-04
 IDIUse=3 WtCom= 9.96D-01 WtEn= 3.87D-03
 Coeff-Com:  0.262D-02-0.265D-01-0.830D-01-0.350D-02 0.111D+01
 Coeff-En:   0.000D+00 0.000D+00 0.000D+00 0.000D+00 0.100D+01
 Coeff:      0.261D-02-0.264D-01-0.827D-01-0.348D-02 0.111D+01
 Gap=     0.547 Goal=   None    Shift=    0.000
 RMSDP=2.36D-05 MaxDP=9.37D-04 DE=-2.65D-04 OVMax= 3.73D-03

 Cycle   6  Pass 1  IDiag  1:
 E= -188.826488955842     Delta-E=       -0.000051482155 Rises=F Damp=F
 DIIS: error= 1.10D-04 at cycle   6 NSaved=   6.
 NSaved= 6 IEnMin= 6 EnMin= -188.826488955842     IErMin= 6 ErrMin= 1.10D-04
 ErrMax= 1.10D-04 EMaxC= 1.00D-01 BMatC= 4.41D-06 BMatP= 2.26D-05
 IDIUse=3 WtCom= 9.99D-01 WtEn= 1.10D-03
 Coeff-Com:  0.198D-02-0.132D-01-0.449D-01-0.110D+00 0.192D+00 0.974D+00
 Coeff-En:   0.000D+00 0.000D+00 0.000D+00 0.000D+00 0.000D+00 0.100D+01
 Coeff:      0.198D-02-0.132D-01-0.448D-01-0.110D+00 0.192D+00 0.974D+00
 Gap=     0.549 Goal=   None    Shift=    0.000
 RMSDP=1.08D-05 MaxDP=3.09D-04 DE=-5.15D-05 OVMax= 1.45D-03

 Cycle   7  Pass 1  IDiag  1:
 E= -188.826498420410     Delta-E=       -0.000009464568 Rises=F Damp=F
 DIIS: error= 4.23D-05 at cycle   7 NSaved=   7.
 NSaved= 7 IEnMin= 7 EnMin= -188.826498420410     IErMin= 7 ErrMin= 4.23D-05
 ErrMax= 4.23D-05 EMaxC= 1.00D-01 BMatC= 5.66D-07 BMatP= 4.41D-06
 IDIUse=1 WtCom= 1.00D+00 WtEn= 0.00D+00
 Coeff-Com: -0.566D-03 0.508D-02 0.203D-01 0.696D-02-0.169D+00-0.138D+00
 Coeff-Com:  0.128D+01
 Coeff:     -0.566D-03 0.508D-02 0.203D-01 0.696D-02-0.169D+00-0.138D+00
 Coeff:      0.128D+01
 Gap=     0.549 Goal=   None    Shift=    0.000
 RMSDP=4.89D-06 MaxDP=1.76D-04 DE=-9.46D-06 OVMax= 8.38D-04

 Cycle   8  Pass 1  IDiag  1:
 E= -188.826500076798     Delta-E=       -0.000001656389 Rises=F Damp=F
 DIIS: error= 1.21D-05 at cycle   8 NSaved=   8.
 NSaved= 8 IEnMin= 8 EnMin= -188.826500076798     IErMin= 8 ErrMin= 1.21D-05
 ErrMax= 1.21D-05 EMaxC= 1.00D-01 BMatC= 4.65D-08 BMatP= 5.66D-07
 IDIUse=1 WtCom= 1.00D+00 WtEn= 0.00D+00
 Coeff-Com: -0.509D-04 0.109D-04-0.442D-03 0.428D-02 0.240D-01-0.278D-01
 Coeff-Com: -0.390D+00 0.139D+01
 Coeff:     -0.509D-04 0.109D-04-0.442D-03 0.428D-02 0.240D-01-0.278D-01
 Coeff:     -0.390D+00 0.139D+01
 Gap=     0.549 Goal=   None    Shift=    0.000
 RMSDP=1.70D-06 MaxDP=6.92D-05 DE=-1.66D-06 OVMax= 3.24D-04

 Cycle   9  Pass 1  IDiag  1:
 E= -188.826500251548     Delta-E=       -0.000000174749 Rises=F Damp=F
 DIIS: error= 4.06D-06 at cycle   9 NSaved=   9.
 NSaved= 9 IEnMin= 9 EnMin= -188.826500251548     IErMin= 9 ErrMin= 4.06D-06
 ErrMax= 4.06D-06 EMaxC= 1.00D-01 BMatC= 4.71D-09 BMatP= 4.65D-08
 IDIUse=1 WtCom= 1.00D+00 WtEn= 0.00D+00
 Coeff-Com:  0.637D-04-0.501D-03-0.153D-02-0.316D-02 0.101D-01 0.238D-01
 Coeff-Com: -0.578D-02-0.420D+00 0.140D+01
 Coeff:      0.637D-04-0.501D-03-0.153D-02-0.316D-02 0.101D-01 0.238D-01
 Coeff:     -0.578D-02-0.420D+00 0.140D+01
 Gap=     0.549 Goal=   None    Shift=    0.000
 RMSDP=4.84D-07 MaxDP=2.14D-05 DE=-1.75D-07 OVMax= 8.14D-05

 Cycle  10  Pass 1  IDiag  1:
 E= -188.826500265480     Delta-E=       -0.000000013932 Rises=F Damp=F
 DIIS: error= 9.46D-07 at cycle  10 NSaved=  10.
 NSaved=10 IEnMin=10 EnMin= -188.826500265480     IErMin=10 ErrMin= 9.46D-07
 ErrMax= 9.46D-07 EMaxC= 1.00D-01 BMatC= 2.70D-10 BMatP= 4.71D-09
 IDIUse=1 WtCom= 1.00D+00 WtEn= 0.00D+00
 Coeff-Com: -0.397D-05 0.541D-04 0.318D-03-0.156D-03-0.381D-02-0.980D-03
 Coeff-Com:  0.401D-01-0.744D-01-0.168D+00 0.121D+01
 Coeff:     -0.397D-05 0.541D-04 0.318D-03-0.156D-03-0.381D-02-0.980D-03
 Coeff:      0.401D-01-0.744D-01-0.168D+00 0.121D+01
 Gap=     0.549 Goal=   None    Shift=    0.000
 RMSDP=9.95D-08 MaxDP=4.24D-06 DE=-1.39D-08 OVMax= 1.38D-05

 Cycle  11  Pass 1  IDiag  1:
 E= -188.826500266079     Delta-E=       -0.000000000599 Rises=F Damp=F
 DIIS: error= 1.72D-07 at cycle  11 NSaved=  11.
 NSaved=11 IEnMin=11 EnMin= -188.826500266079     IErMin=11 ErrMin= 1.72D-07
 ErrMax= 1.72D-07 EMaxC= 1.00D-01 BMatC= 7.65D-12 BMatP= 2.70D-10
 IDIUse=1 WtCom= 1.00D+00 WtEn= 0.00D+00
 Coeff-Com: -0.198D-05 0.136D-04 0.955D-05 0.159D-03 0.149D-03-0.264D-03
 Coeff-Com: -0.841D-02 0.331D-01-0.230D-01-0.265D+00 0.126D+01
 Coeff:     -0.198D-05 0.136D-04 0.955D-05 0.159D-03 0.149D-03-0.264D-03
 Coeff:     -0.841D-02 0.331D-01-0.230D-01-0.265D+00 0.126D+01
 Gap=     0.549 Goal=   None    Shift=    0.000
 RMSDP=1.76D-08 MaxDP=6.68D-07 DE=-5.99D-10 OVMax= 1.98D-06

 Cycle  12  Pass 1  IDiag  1:
 E= -188.826500266098     Delta-E=       -0.000000000020 Rises=F Damp=F
 DIIS: error= 2.96D-08 at cycle  12 NSaved=  12.
 NSaved=12 IEnMin=12 EnMin= -188.826500266098     IErMin=12 ErrMin= 2.96D-08
 ErrMax= 2.96D-08 EMaxC= 1.00D-01 BMatC= 2.87D-13 BMatP= 7.65D-12
 IDIUse=1 WtCom= 1.00D+00 WtEn= 0.00D+00
 Coeff-Com:  0.470D-06-0.426D-05-0.842D-05-0.432D-04 0.643D-04 0.143D-03
 Coeff-Com:  0.877D-03-0.601D-02 0.104D-01 0.279D-01-0.316D+00 0.128D+01
 Coeff:      0.470D-06-0.426D-05-0.842D-05-0.432D-04 0.643D-04 0.143D-03
 Coeff:      0.877D-03-0.601D-02 0.104D-01 0.279D-01-0.316D+00 0.128D+01
 Gap=     0.549 Goal=   None    Shift=    0.000
 RMSDP=3.43D-09 MaxDP=1.10D-07 DE=-1.97D-11 OVMax= 3.28D-07

 SCF Done:  E(RHF) =  -188.826500266     A.U. after   12 cycles
             Convg  =    0.3427D-08             -V/T =  2.0025
 KE= 1.883493369309D+02 PE=-5.847580470455D+02 EE= 1.382432681561D+02
 Leave Link  502 at Fri Sep  6 17:07:10 2019, MaxMem= 4294967296 cpu:     275.8
 (Enter /opt/g09gh/gaussian/g09/l801.exe)
 ExpMin= 1.03D-01 ExpMax= 1.53D+04 ExpMxC= 5.22D+02 IAcc=1 IRadAn=         1 AccDes= 0.00D+00
 HarFok:  IExCor=  205 AccDes= 0.00D+00 IRadAn=         1 IDoV=-2
 ScaDFX=  1.000000  1.000000  1.000000  1.000000
 Largest valence mixing into a core orbital is  2.19D-04
 Largest core mixing into a valence orbital is  2.57D-05
 Range of M.O.s used for correlation:     4   236
 NBasis=   236 NAE=    12 NBE=    12 NFC=     3 NFV=     0
 NROrb=    233 NOA=     9 NOB=     9 NVA=   224 NVB=   224
 Leave Link  801 at Fri Sep  6 17:07:10 2019, MaxMem= 4294967296 cpu:       0.3
 (Enter /opt/g09gh/gaussian/g09/l906.exe)
 Frozen-core derivative calculation, NFC=   3 NFV=   0.
 FulOut=F Deriv=T AODrv=T NAtomX=    10
   MMem=         442  MDisk=           9 MDiskD=           9
  W3Min=      764640 MinDsk=     1547825 NBas6D=         270
 NBas2D=       37173    NTT=       36585    LW2=     3500000
    MDV=  4294301122 MDiskM=       79487 NBas2p=       35827
 Fully direct method using O(ONN) memory.
 IMap=   1   2   3   4   5   6   7   8   9  10  11  12
 JobTyp=1 Pass  1:  I=   4 to  12 NPSUse=  8 ParTrn=T ParDer=T DoDerP=T.
 Spin components of T(2) and E(2):
     alpha-alpha T2 =       0.2217165722D-01 E2=     -0.8179847626D-01
     alpha-beta  T2 =       0.1213723947D+00 E2=     -0.4740752045D+00
     beta-beta   T2 =       0.2217165722D-01 E2=     -0.8179847626D-01
 The integrals were generated   1 times.
 ANorm=    0.1079683152D+01
 E2 =    -0.6376721570D+00 EUMP2 =    -0.18946417242313D+03
 Leave Link  906 at Fri Sep  6 17:07:46 2019, MaxMem= 4294967296 cpu:     283.0
 (Enter /opt/g09gh/gaussian/g09/l1002.exe)
 Minotr:  Closed shell wavefunction.
          Computing MP2/KS-MP2 derivatives.
          Using Z-Vector for PSCF gradient.
          Skipping F1 and S1 gradient terms here.
          IDoAtm=1111111111
          Frozen-core window.
          Direct CPHF calculation.
          Differentiating once with respect to electric field.
                with respect to dipole field.
          Differentiating once with respect to nuclear coordinates.
          Requested convergence is 1.0D-10 RMS, and 1.0D-09 maximum.
          NewPWx=F KeepS1=T KeepF1=T KeepIn=T MapXYZ=F SortEE=F KeepMc=T.
          MDV=    4294967192 using IRadAn=       0.
          Keep R1 ints in memory in canonical form, NReq=671191012.
 Symmetry not used in FoFDir.
 MinBra= 0 MaxBra= 3 Meth= 1.
 IRaf=       0 NMat=   1 IRICut=       1 DoRegI=T DoRafI=F ISym2E= 0 JSym2E=0.
          Solving linear equations separately, MaxMat=       0.
          There are     1 degrees of freedom in the 1st order CPHF.  IDoFFX=0.
 LinEq1:  Iter=  0 NonCon=     1 RMS=4.52D-03 Max=1.40D-01
 AX will form     1 AO Fock derivatives at one time.
 LinEq1:  Iter=  1 NonCon=     1 RMS=1.19D-03 Max=2.14D-02
 LinEq1:  Iter=  2 NonCon=     1 RMS=4.64D-04 Max=6.27D-03
 LinEq1:  Iter=  3 NonCon=     1 RMS=2.09D-04 Max=3.23D-03
 LinEq1:  Iter=  4 NonCon=     1 RMS=4.99D-05 Max=7.47D-04
 LinEq1:  Iter=  5 NonCon=     1 RMS=1.79D-05 Max=2.97D-04
 LinEq1:  Iter=  6 NonCon=     1 RMS=6.20D-06 Max=1.45D-04
 LinEq1:  Iter=  7 NonCon=     1 RMS=1.37D-06 Max=3.02D-05
 LinEq1:  Iter=  8 NonCon=     1 RMS=2.59D-07 Max=3.34D-06
 LinEq1:  Iter=  9 NonCon=     1 RMS=4.11D-08 Max=4.65D-07
 LinEq1:  Iter= 10 NonCon=     1 RMS=7.88D-09 Max=9.74D-08
 LinEq1:  Iter= 11 NonCon=     1 RMS=1.48D-09 Max=1.31D-08
 LinEq1:  Iter= 12 NonCon=     1 RMS=2.06D-10 Max=1.86D-09
 LinEq1:  Iter= 13 NonCon=     0 RMS=3.19D-11 Max=4.22D-10
 Linear equations converged to 1.000D-10 1.000D-09 after    13 iterations.
 End of Minotr Frequency-dependent properties file   721 does not exist.
 End of Minotr Frequency-dependent properties file   722 does not exist.
 Leave Link 1002 at Fri Sep  6 17:08:29 2019, MaxMem= 4294967296 cpu:     342.6
 (Enter /opt/g09gh/gaussian/g09/l601.exe)
 Copying SCF densities to generalized density rwf, IOpCl= 0 IROHF=0.

 **********************************************************************

            Population analysis using the SCF density.

 **********************************************************************

 Alpha  occ. eigenvalues --  -20.65046 -20.55683 -11.39727  -1.48216  -1.36039
 Alpha  occ. eigenvalues --   -0.89710  -0.72753  -0.70809  -0.64808  -0.58648
 Alpha  occ. eigenvalues --   -0.48565  -0.46103
 Alpha virt. eigenvalues --    0.08817   0.15621   0.16251   0.17277   0.21241
 Alpha virt. eigenvalues --    0.26242   0.28696   0.31913   0.34082   0.35634
 Alpha virt. eigenvalues --    0.38631   0.43139   0.47407   0.50854   0.54739
 Alpha virt. eigenvalues --    0.57456   0.58948   0.63251   0.64314   0.64810
 Alpha virt. eigenvalues --    0.67666   0.68845   0.71544   0.72772   0.76031
 Alpha virt. eigenvalues --    0.77700   0.79627   0.85033   0.87054   0.89712
 Alpha virt. eigenvalues --    0.92797   0.95255   0.95305   0.98462   1.01806
 Alpha virt. eigenvalues --    1.02535   1.06492   1.11724   1.13931   1.17927
 Alpha virt. eigenvalues --    1.18046   1.21968   1.22530   1.26594   1.29578
 Alpha virt. eigenvalues --    1.30129   1.35782   1.39037   1.41912   1.45760
 Alpha virt. eigenvalues --    1.48283   1.56291   1.56790   1.64135   1.68261
[...]
 Range of M.O.s used for correlation:     4   118
 NBasis=   118 NAE=    12 NBE=    12 NFC=     3 NFV=     0
 NROrb=    115 NOA=     9 NOB=     9 NVA=   106 NVB=   106
 Leave Link  801 at Fri Sep  6 18:23:36 2019, MaxMem= 4294967296 cpu:       0.3
 (Enter /opt/g09gh/gaussian/g09/l906.exe)
 Frozen-core derivative calculation, NFC=   3 NFV=   0.
 FulOut=F Deriv=T AODrv=T NAtomX=     5
   MMem=        3357  MDisk=           9 MDiskD=           9
  W3Min=      191160 MinDsk=      425300 NBas6D=         135
 NBas2D=        9474    NTT=        9180    LW2=     3500000
    MDV=  4294786840 MDiskM=      158992 NBas2p=        9473
 Fully direct method using O(ONN) memory.
 IMap=   1   2   3   4   5   6   7   8   9  10  11  12
 JobTyp=1 Pass  1:  I=   4 to  12 NPSUse=  8 ParTrn=T ParDer=T DoDerP=T.
 Spin components of T(2) and E(2):
     alpha-alpha T2 =       0.2154383171D-01 E2=     -0.8097250487D-01
     alpha-beta  T2 =       0.1181181143D+00 E2=     -0.4693883813D+00
     beta-beta   T2 =       0.2154383171D-01 E2=     -0.8097250487D-01
 The integrals were generated   1 times.
 ANorm=    0.1077592584D+01
 E2 =    -0.6313333910D+00 EUMP2 =    -0.18946931810034D+03
 Leave Link  906 at Fri Sep  6 18:23:38 2019, MaxMem= 4294967296 cpu:      20.3
 (Enter /opt/g09gh/gaussian/g09/l1002.exe)
 Minotr:  Closed shell wavefunction.
          Computing MP2/KS-MP2 derivatives.
          Using Z-Vector for PSCF gradient.
          Skipping F1 and S1 gradient terms here.
          IDoAtm=0000011111
          Frozen-core window.
          Direct CPHF calculation.
          Differentiating once with respect to electric field.
                with respect to dipole field.
          Differentiating once with respect to nuclear coordinates.
          Requested convergence is 1.0D-10 RMS, and 1.0D-09 maximum.
          NewPWx=F KeepS1=T KeepF1=T KeepIn=F MapXYZ=T SortEE=F KeepMc=T.
          MDV=    4294967192 using IRadAn=       0.
          Keep R1 ints in memory in canonical form, NReq=44081883.
 Symmetry not used in FoFDir.
 MinBra= 0 MaxBra= 3 Meth= 1.
 IRaf=       0 NMat=   1 IRICut=       1 DoRegI=T DoRafI=F ISym2E= 0 JSym2E=0.
          Solving linear equations separately, MaxMat=       0.
          There are     1 degrees of freedom in the 1st order CPHF.  IDoFFX=0.
 LinEq1:  Iter=  0 NonCon=     1 RMS=6.26D-03 Max=1.39D-01
 AX will form     1 AO Fock derivatives at one time.
 LinEq1:  Iter=  1 NonCon=     1 RMS=1.62D-03 Max=2.06D-02
 LinEq1:  Iter=  2 NonCon=     1 RMS=5.99D-04 Max=5.68D-03
 LinEq1:  Iter=  3 NonCon=     1 RMS=2.77D-04 Max=3.83D-03
 LinEq1:  Iter=  4 NonCon=     1 RMS=6.44D-05 Max=7.00D-04
 LinEq1:  Iter=  5 NonCon=     1 RMS=2.24D-05 Max=2.75D-04
 LinEq1:  Iter=  6 NonCon=     1 RMS=6.75D-06 Max=5.67D-05
 LinEq1:  Iter=  7 NonCon=     1 RMS=1.29D-06 Max=1.60D-05
 LinEq1:  Iter=  8 NonCon=     1 RMS=2.52D-07 Max=3.32D-06
 LinEq1:  Iter=  9 NonCon=     1 RMS=4.71D-08 Max=5.45D-07
 LinEq1:  Iter= 10 NonCon=     1 RMS=1.03D-08 Max=8.52D-08
 LinEq1:  Iter= 11 NonCon=     1 RMS=1.97D-09 Max=1.56D-08
 LinEq1:  Iter= 12 NonCon=     1 RMS=2.81D-10 Max=2.59D-09
 LinEq1:  Iter= 13 NonCon=     0 RMS=4.48D-11 Max=4.11D-10
 Linear equations converged to 1.000D-10 1.000D-09 after    13 iterations.
 End of Minotr Frequency-dependent properties file   721 does not exist.
 End of Minotr Frequency-dependent properties file   722 does not exist.
 Leave Link 1002 at Fri Sep  6 18:23:40 2019, MaxMem= 4294967296 cpu:      16.0
 (Enter /opt/g09gh/gaussian/g09/l701.exe)
 Compute integral first derivatives.
 ... and contract with generalized density number  2.
 Leave Link  701 at Fri Sep  6 18:23:41 2019, MaxMem= 4294967296 cpu:       1.6
 (Enter /opt/g09gh/gaussian/g09/l702.exe)
 L702 exits ... SP integral derivatives will be done elsewhere.
 Leave Link  702 at Fri Sep  6 18:23:41 2019, MaxMem= 4294967296 cpu:       0.1
 (Enter /opt/g09gh/gaussian/g09/l703.exe)
 Compute integral first derivatives, UseDBF=F ICtDFT=           0.
 Integral derivatives from FoFDir, PRISM(SPDF).
 Calling FoFJK, ICntrl=      2127 FMM=F ISym2X=0 I1Cent= 0 IOpClX= 0 NMat=1 NMatS=1 NMatT=0.
 FoFCou: FMM=F IPFlag=           0 FMFlag=      100000 FMFlg1=         800
         NFxFlg=           0 DoJE=F BraDBF=F KetDBF=F FulRan=T
         Omega=  0.000000  0.000000  1.000000  0.000000  0.000000 ICntrl=    2127 IOpCl=  0
         NMat0=    1 NMatS0=    1 NMatT0=    0 NMatD0=    1 NMtDS0=    0 NMtDT0=    0
         I1Cent=           0 NGrid=           0.
 Symmetry not used in FoFCou.
 Leave Link  703 at Fri Sep  6 18:23:42 2019, MaxMem= 4294967296 cpu:      11.4
 (Enter /opt/g09gh/gaussian/g09/l716.exe)
 Dipole        =-6.35500890D-02-6.65342242D-01-5.32424557D-08
 Cartesian Forces:  Max     0.041140707 RMS     0.011375323
 Leave Link  716 at Fri Sep  6 18:23:42 2019, MaxMem= 4294967296 cpu:       0.2
 (Enter /opt/g09gh/gaussian/g09/l122.exe)
 Restoring MOs from calculation   1 to rwf.
 Counterpoise: corrected energy =    -378.965105670678
 Counterpoise: BSSE energy =       0.004273681863
 Leave Link  122 at Fri Sep  6 18:23:42 2019, MaxMem= 4294967296 cpu:       0.0
 (Enter /opt/g09gh/gaussian/g09/l716.exe)
 Dipole        = 1.67418935D-04-1.10587168D-05 1.45075555D-07
 -------------------------------------------------------------------
 Center     Atomic                   Forces (Hartrees/Bohr)
 Number     Number              X              Y              Z
 -------------------------------------------------------------------
      1        6           0.000003527   -0.000006657   -0.000000320
      2        1          -0.000000065   -0.000000018    0.000000112
      3        8           0.000003852    0.000003501    0.000000118
      4        8           0.000005602    0.000002879    0.000000105
      5        1          -0.000010934    0.000000645   -0.000000018
      6        6          -0.000001668    0.000006699    0.000000260
      7        1          -0.000000145   -0.000000304   -0.000000092
      8        8           0.000002107   -0.000003151   -0.000000082
      9        8          -0.000003226   -0.000002986   -0.000000065
     10        1           0.000000949   -0.000000608   -0.000000017
 -------------------------------------------------------------------
 Cartesian Forces:  Max     0.000010934 RMS     0.000003299
 Leave Link  716 at Fri Sep  6 18:23:42 2019, MaxMem= 4294967296 cpu:       0.2
 (Enter /opt/g09gh/gaussian/g09/l103.exe)

 GradGradGradGradGradGradGradGradGradGradGradGradGradGradGradGradGradGrad
 Berny optimization.
 Using GEDIIS/GDIIS optimizer.
 Internal  Forces:  Max     0.000008695 RMS     0.000002348
 Search for a local minimum.
 Step number  12 out of a maximum of   44
 All quantities printed in internal units (Hartrees-Bohrs-Radians)
 RMS Force = .23480D-05 SwitMx=.10000D-02 MixMth= 2
 Mixed Optimization -- En-DIIS/RFO-DIIS
 Swaping is turned off.
 Update second derivatives using D2CorX and points    4    5    6    7    8
                                                      9   10   11   12
 DE=  2.27D-09 DEPred=-2.28D-09 R=-9.96D-01
 Trust test=-9.96D-01 RLast= 4.07D-04 DXMaxT set to 2.15D-01
     Eigenvalues ---    0.00391   0.01217   0.01455   0.01475   0.02539
     Eigenvalues ---    0.02907   0.03457   0.03473   0.03474   0.06181
     Eigenvalues ---    0.10175   0.12181   0.16153   0.16239   0.22314
     Eigenvalues ---    0.25460   0.32935   0.34333   0.41320   0.46111
     Eigenvalues ---    0.65623   0.67188   0.83652   0.921811000.00000
     Eigenvalues --- 1000.000001000.000001000.000001000.000001000.00000
     Eigenvalues --- 1000.000001000.000001000.000001000.00000
 En-DIIS/RFO-DIIS IScMMF=        0 using points:    12   11   10    9    8
 RFO step:  Lambda= 0.00000000D+00.
 DIIS coeffs:      1.17048     -0.16725     -0.01728      0.01541     -0.00136
 Iteration  1 RMS(Cart)=  0.00002286 RMS(Int)=  0.00000000
 Iteration  2 RMS(Cart)=  0.00000000 RMS(Int)=  0.00000000
 Variable       Old X    -DE/DX   Delta X   Delta X   Delta X     New X
                                  (DIIS)     (GDIIS)  (Total)
    R1        2.06219   0.00000   0.00000   0.00000   0.00000   2.06219
    R2        2.30405   0.00000   0.00000   0.00000   0.00000   2.30405
    R3        2.48554   0.00000   0.00000   0.00001   0.00000   2.48555
    R4        3.22043   0.00000   0.00005   0.00002   0.00008   3.22051
    R5        1.87834   0.00001   0.00000   0.00001   0.00001   1.87835
    R6        3.22073   0.00000   0.00004  -0.00003   0.00001   3.22074
    R7        2.06219   0.00000   0.00000   0.00000   0.00000   2.06219
    R8        2.30406   0.00000   0.00000   0.00000   0.00000   2.30405
    R9        2.48554   0.00000   0.00000   0.00001   0.00000   2.48555
   R10        1.87837   0.00001   0.00000   0.00001   0.00001   1.87837
    A1        2.13481   0.00000   0.00000   0.00000   0.00000   2.13481
    A2        1.94259   0.00000   0.00000   0.00001   0.00001   1.94259
    A3        2.20579   0.00000   0.00000  -0.00001  -0.00001   2.20579
    A4        2.17783   0.00000   0.00002   0.00001   0.00003   2.17786
    A5        1.90300   0.00000  -0.00001   0.00001   0.00000   1.90300
    A6        2.13480   0.00000   0.00000   0.00000   0.00000   2.13481
    A7        1.94259   0.00000   0.00000   0.00000   0.00000   1.94259
    A8        2.20579   0.00000   0.00000   0.00000   0.00000   2.20579
    A9        2.17780   0.00000   0.00002   0.00001   0.00003   2.17783
   A10        1.90301   0.00000  -0.00001   0.00001   0.00000   1.90300
   A11        3.13812   0.00000  -0.00001   0.00000  -0.00001   3.13810
   A12        3.13821   0.00000  -0.00001  -0.00002  -0.00003   3.13817
   A13        3.14159   0.00000   0.00000   0.00000   0.00000   3.14159
   A14        3.14159   0.00000   0.00000   0.00000   0.00000   3.14159
    D1       -3.14159   0.00000   0.00000   0.00000   0.00000   3.14159
    D2        0.00000   0.00000   0.00000   0.00000   0.00000   0.00000
    D3        3.14159   0.00000   0.00000   0.00000   0.00000  -3.14159
    D4        0.00000   0.00000   0.00000   0.00000   0.00000   0.00000
    D5        0.00000   0.00000   0.00000   0.00000   0.00000   0.00000
    D6        0.00000   0.00000   0.00000   0.00000   0.00000   0.00000
    D7        3.14159   0.00000   0.00000   0.00000   0.00000  -3.14159
    D8        0.00000   0.00000   0.00000   0.00000   0.00000   0.00000
    D9       -3.14159   0.00000   0.00000   0.00000   0.00000   3.14159
   D10        0.00000   0.00000   0.00000   0.00000   0.00000   0.00000
         Item               Value     Threshold  Converged?
 Maximum Force            0.000009     0.000015     YES
 RMS     Force            0.000002     0.000010     YES
 Maximum Displacement     0.000058     0.000060     YES
 RMS     Displacement     0.000023     0.000040     YES
 Predicted change in Energy=-2.895751D-10
 Optimization completed.
    -- Stationary point found.
                           ----------------------------
                           !   Optimized Parameters   !
                           ! (Angstroms and Degrees)  !
 --------------------------                            --------------------------
 ! Name  Definition              Value          Derivative Info.                !
 --------------------------------------------------------------------------------
 ! R1    R(1,2)                  1.0913         -DE/DX =    0.0                 !
 ! R2    R(1,3)                  1.2193         -DE/DX =    0.0                 !
 ! R3    R(1,4)                  1.3153         -DE/DX =    0.0                 !
 ! R4    R(3,10)                 1.7042         -DE/DX =    0.0                 !
 ! R5    R(4,5)                  0.994          -DE/DX =    0.0                 !
 ! R6    R(5,8)                  1.7043         -DE/DX =    0.0                 !
 ! R7    R(6,7)                  1.0913         -DE/DX =    0.0                 !
 ! R8    R(6,8)                  1.2193         -DE/DX =    0.0                 !
 ! R9    R(6,9)                  1.3153         -DE/DX =    0.0                 !
 ! R10   R(9,10)                 0.994          -DE/DX =    0.0                 !
 ! A1    A(2,1,3)              122.3153         -DE/DX =    0.0                 !
 ! A2    A(2,1,4)              111.3019         -DE/DX =    0.0                 !
 ! A3    A(3,1,4)              126.3827         -DE/DX =    0.0                 !
 ! A4    A(1,3,10)             124.7807         -DE/DX =    0.0                 !
 ! A5    A(1,4,5)              109.0341         -DE/DX =    0.0                 !
 ! A6    A(7,6,8)              122.3153         -DE/DX =    0.0                 !
 ! A7    A(7,6,9)              111.3022         -DE/DX =    0.0                 !
 ! A8    A(8,6,9)              126.3825         -DE/DX =    0.0                 !
 ! A9    A(5,8,6)              124.7788         -DE/DX =    0.0                 !
 ! A10   A(6,9,10)             109.0343         -DE/DX =    0.0                 !
 ! A11   L(4,5,8,1,-1)         179.8008         -DE/DX =    0.0                 !
 ! A12   L(3,10,9,6,-1)        179.806          -DE/DX =    0.0                 !
 ! A13   L(4,5,8,1,-2)         180.0001         -DE/DX =    0.0                 !
 ! A14   L(3,10,9,6,-2)        179.9999         -DE/DX =    0.0                 !
 ! D1    D(2,1,3,10)           180.0001         -DE/DX =    0.0                 !
 ! D2    D(4,1,3,10)            -0.0001         -DE/DX =    0.0                 !
 ! D3    D(2,1,4,5)           -180.0001         -DE/DX =    0.0                 !
 ! D4    D(3,1,4,5)              0.0001         -DE/DX =    0.0                 !
 ! D5    D(1,3,9,6)              0.0001         -DE/DX =    0.0                 !
 ! D6    D(1,4,8,6)              0.0            -DE/DX =    0.0                 !
 ! D7    D(7,6,8,5)           -180.0001         -DE/DX =    0.0                 !
 ! D8    D(9,6,8,5)              0.0001         -DE/DX =    0.0                 !
 ! D9    D(7,6,9,10)           180.0001         -DE/DX =    0.0                 !
 ! D10   D(8,6,9,10)            -0.0001         -DE/DX =    0.0                 !
 --------------------------------------------------------------------------------
 GradGradGradGradGradGradGradGradGradGradGradGradGradGradGradGradGradGrad

 Largest change from initial coordinates is atom    6       0.196 Angstoms.
 Leave Link  103 at Fri Sep  6 18:23:43 2019, MaxMem= 4294967296 cpu:       0.1
 (Enter /opt/g09gh/gaussian/g09/l202.exe)
                          Input orientation:                          
 ---------------------------------------------------------------------
 Center     Atomic      Atomic             Coordinates (Angstroms)
 Number     Number       Type             X           Y           Z
 ---------------------------------------------------------------------
      1          6           0        1.904706   -0.179876    0.000001
      2          1           0        2.993090   -0.259083   -0.000001
      3          8           0        1.179848   -1.160264    0.000000
      4          8           0        1.517088    1.077005    0.000000
      5          1           0        0.523658    1.109866    0.000001
      6          6           0       -1.904729    0.179858   -0.000001
      7          1           0       -2.993119    0.259000    0.000000
      8          8           0       -1.179930    1.160290    0.000000
      9          8           0       -1.517029   -1.076997    0.000000
     10          1           0       -0.523583   -1.109797    0.000001
 ---------------------------------------------------------------------
                    Distance matrix (angstroms):
                    1          2          3          4          5
     1  C    0.000000
     2  H    1.091263   0.000000
     3  O    1.219253   2.024839   0.000000
     4  O    1.315294   1.990908   2.262543   0.000000
     5  H    1.889636   2.823493   2.363064   0.993973   0.000000
     6  C    3.826382   4.917448   3.363114   3.537471   2.600380
     7  H    4.917448   6.008586   4.407716   4.583786   3.618245
     8  O    3.363187   4.407802   3.309610   2.698304   1.704335
     9  O    3.537386   4.583685   2.698162   3.720967   2.991116
    10  H    2.600257   3.618108   1.704178   2.991060   2.454306
                    6          7          8          9         10
     6  C    0.000000
     7  H    1.091264   0.000000
     8  O    1.219254   2.024840   0.000000
     9  O    1.315293   1.990911   2.262541   0.000000
    10  H    1.889649   2.823511   2.363068   0.993988   0.000000
 Symmetry turned off by external request.
 Stoichiometry    C2H4O4
 Framework group  C1[X(C2H4O4)]
 Deg. of freedom    24
 Full point group                 C1      NOp   1
 Rotational constants (GHZ):      6.0476374      2.2577802      1.6440156
 Leave Link  202 at Fri Sep  6 18:23:43 2019, MaxMem= 4294967296 cpu:       0.1
 (Enter /opt/g09gh/gaussian/g09/l601.exe)
 Copying SCF densities to generalized density rwf, IOpCl= 0 IROHF=0.

 **********************************************************************

            Population analysis using the SCF density.

 **********************************************************************

 Electronic spatial extent (au):  <R**2>=            660.7603
 Charge=              0.0000 electrons
 Dipole moment (field-independent basis, Debye):
    X=              0.0004    Y=             -0.0001    Z=              0.0000  Tot=              0.0004
 Quadrupole moment (field-independent basis, Debye-Ang):
   XX=            -24.1299   YY=            -42.4803   ZZ=            -33.5284
   XY=             -1.0537   XZ=              0.0000   YZ=              0.0000
 Traceless Quadrupole moment (field-independent basis, Debye-Ang):
   XX=              9.2497   YY=             -9.1008   ZZ=             -0.1489
   XY=             -1.0537   XZ=              0.0000   YZ=              0.0000
 Octapole moment (field-independent basis, Debye-Ang**2):
  XXX=              0.0015  YYY=              0.0000  ZZZ=              0.0000  XYY=              0.0014
  XXY=             -0.0018  XXZ=              0.0000  XZZ=              0.0004  YZZ=             -0.0001
  YYZ=              0.0000  XYZ=              0.0000
 Hexadecapole moment (field-independent basis, Debye-Ang**3):
 XXXX=           -426.3432 YYYY=           -216.9952 ZZZZ=            -26.6746 XXXY=            -18.6816
 XXXZ=             -0.0001 YYYX=              6.8393 YYYZ=              0.0000 ZZZX=              0.0000
 ZZZY=              0.0000 XXYY=           -152.4966 XXZZ=            -94.9137 YYZZ=            -39.6434
 XXYZ=              0.0000 YYXZ=              0.0000 ZZXY=              0.4689
 No NMR shielding tensors so no spin-rotation constants.
 Leave Link  601 at Fri Sep  6 18:23:44 2019, MaxMem= 4294967296 cpu:       2.0
 (Enter /opt/g09gh/gaussian/g09/l9999.exe)

 Test job not archived.
 1\1\GINC-NODE35\FOpt\RMP2-FC\CC-pVTZ\C2H4O4\XY3866\06-Sep-2019\0\\#p M
 P2/cc-pvtz counterpoise=2 IOP(5/13=1) scf=tight Symmetry=None MaxDisk=
 100GB Opt=tight\\Opt=tight\\0,1\C,1.9047055517,-0.1798760661,0.0000005
 386\H,2.9930903434,-0.2590832854,-0.0000011714\O,1.1798476444,-1.16026
 35467,0.0000000274\O,1.5170880826,1.0770049057,0.0000002549\H,0.523658
 3795,1.1098656319,0.0000006946\C,-1.9047285901,0.1798576541,-0.0000007
 524\H,-2.9931187506,0.2589996757,-0.0000002351\O,-1.1799304866,1.16028
 97869,-0.0000001398\O,-1.5170294703,-1.0769973885,0.0000001962\H,-0.52
 3582704,-1.1097973676,0.000000587\\Version=EM64L-G09RevA.02\HF=-188.83
 79847\MP2=-189.4693181\RMSD=7.048e-09\RMSF=3.299e-06\Dipole=0.0001726,
 -0.0000213,0.0000001\Quadrupole=6.8768932,-6.7662153,-0.1106779,-0.783
 4303,0.0000024,0.0000004\PG=C01 [X(C2H4O4)]\\@


 HE THAT IS UNAWARE OF HIS IGNORANCE WILL BE MISLED BY HIS KNOWLEDGE.

                                        -- WHATLEY
 Job cpu time:  0 days 10 hours 43 minutes 35.6 seconds.
 File lengths (MBytes):  RWF=     39 Int=      0 D2E=      0 Chk=     11 Scr=      1
 Normal termination of Gaussian 09 at Fri Sep  6 18:23:45 2019.
