 Entering Gaussian System, Link 0=g09
 Input=formamide_formamide_dimer.com
 Output=formamide_formamide_dimer.out
 Initial command:
 /opt/g09gh/gaussian/g09/l1.exe /scratch/xy3866/Gau-8369.inp -scrdir=/scratch/xy3866/
 Entering Link 1 = /opt/g09gh/gaussian/g09/l1.exe PID=      8370.
  
 Copyright (c) 1988,1990,1992,1993,1995,1998,2003,2009, Gaussian, Inc.
                  All Rights Reserved.
  
 This is part of the Gaussian(R) 09 program.  It is based on
 the Gaussian(R) 03 system (copyright 2003, Gaussian, Inc.),
 the Gaussian(R) 98 system (copyright 1998, Gaussian, Inc.),
 the Gaussian(R) 94 system (copyright 1995, Gaussian, Inc.),
 the Gaussian 92(TM) system (copyright 1992, Gaussian, Inc.),
 the Gaussian 90(TM) system (copyright 1990, Gaussian, Inc.),
 the Gaussian 88(TM) system (copyright 1988, Gaussian, Inc.),
 the Gaussian 86(TM) system (copyright 1986, Carnegie Mellon
 University), and the Gaussian 82(TM) system (copyright 1983,
 Carnegie Mellon University). Gaussian is a federally registered
 trademark of Gaussian, Inc.
  
 This software contains proprietary and confidential information,
 including trade secrets, belonging to Gaussian, Inc.
  
 This software is provided under written license and may be
 used, copied, transmitted, or stored only in accord with that
 written license.
  
 The following legend is applicable only to US Government
 contracts under FAR:
  
                    RESTRICTED RIGHTS LEGEND
  
 Use, reproduction and disclosure by the US Government is
 subject to restrictions as set forth in subparagraphs (a)
 and (c) of the Commercial Computer Software - Restricted
 Rights clause in FAR 52.227-19.
  
 Gaussian, Inc.
 340 Quinnipiac St., Bldg. 40, Wallingford CT 06492
  
  
 ---------------------------------------------------------------
 Warning -- This program may not be used in any manner that
 competes with the business of Gaussian, Inc. or will provide
 assistance to any competitor of Gaussian, Inc.  The licensee
 of this program is prohibited from giving any competitor of
 Gaussian, Inc. access to this program.  By using this program,
 the user acknowledges that Gaussian, Inc. is engaged in the
 business of creating and licensing software in the field of
 computational chemistry and represents and warrants to the
 licensee that it is not a competitor of Gaussian, Inc. and that
 it will not use this program in any manner prohibited above.
 ---------------------------------------------------------------
  

 Cite this work as:
 Gaussian 09, Revision A.02,
 M. J. Frisch, G. W. Trucks, H. B. Schlegel, G. E. Scuseria, 
 M. A. Robb, J. R. Cheeseman, G. Scalmani, V. Barone, B. Mennucci, 
 G. A. Petersson, H. Nakatsuji, M. Caricato, X. Li, H. P. Hratchian, 
 A. F. Izmaylov, J. Bloino, G. Zheng, J. L. Sonnenberg, M. Hada, 
 M. Ehara, K. Toyota, R. Fukuda, J. Hasegawa, M. Ishida, T. Nakajima, 
 Y. Honda, O. Kitao, H. Nakai, T. Vreven, J. A. Montgomery, Jr., 
 J. E. Peralta, F. Ogliaro, M. Bearpark, J. J. Heyd, E. Brothers, 
 K. N. Kudin, V. N. Staroverov, R. Kobayashi, J. Normand, 
 K. Raghavachari, A. Rendell, J. C. Burant, S. S. Iyengar, J. Tomasi, 
 M. Cossi, N. Rega, J. M. Millam, M. Klene, J. E. Knox, J. B. Cross, 
 V. Bakken, C. Adamo, J. Jaramillo, R. Gomperts, R. E. Stratmann, 
 O. Yazyev, A. J. Austin, R. Cammi, C. Pomelli, J. W. Ochterski, 
 R. L. Martin, K. Morokuma, V. G. Zakrzewski, G. A. Voth, 
 P. Salvador, J. J. Dannenberg, S. Dapprich, A. D. Daniels, 
 O. Farkas, J. B. Foresman, J. V. Ortiz, J. Cioslowski, 
 and D. J. Fox, Gaussian, Inc., Wallingford CT, 2009.
 
 ******************************************
 Gaussian 09:  EM64L-G09RevA.02 11-Jun-2009
                 9-Sep-2019 
 ******************************************
 %NoSave
 %chk=formamide_formamide_dimer.chk
 %nproc=8
 Will use up to    8 processors via shared memory.
 %Mem=32GB
 ----------------------------------------------------------------------
 #p MP2/cc-pvtz counterpoise=2 IOP(5/13=1) scf=tight Symmetry=None MaxD
 isk=100GB Opt=tight
 ----------------------------------------------------------------------
 1/7=10,18=20,19=15,38=1,62=2/1,3;
 2/9=110,12=2,15=1,17=6,18=5,40=1/2;
 1/7=10,18=20,19=15,38=1,53=5172,62=2,63=100/22;
 3/5=16,6=1,11=9,16=1,25=1,30=1,71=1/1,2,3;
 4//1;
 5/5=2,13=1,32=2,38=5/2;
 8/6=4,10=1/1;
 9/15=2,16=-3/6;
 10/5=1,31=1/2;
 6/7=2,8=2,9=2,10=2/1;
 7/7=1,12=2,30=1,33=-1/1,2,3,16;
 1/7=10,18=20,19=15,53=4052,62=2,63=101/22;
 3/5=7,6=11,11=9,16=1,25=1,30=1,71=1,82=7/1,2,3;
 4//1;
 5/5=2,13=1,32=2,38=5/2;
 8/6=4,10=1/1;
 9/15=2,16=-3/6;
 10/5=1,31=1/2;
 6/7=2,8=2,9=2,10=2/1;
 7/7=1,12=2,30=1,33=-1/1,2,3,16;
 1/7=10,18=20,19=15,53=3042,62=2,63=102/22;
 3/5=7,6=11,11=9,16=1,25=1,30=1,71=1,82=7/1,2,3;
 4//1;
 5/5=2,13=1,32=2,38=5/2;
 8/6=4,10=1/1;
 9/15=2,16=-3/6;
 10/5=1,31=1/2;
 6/7=2,8=2,9=2,10=2/1;
 7/7=1,12=2,30=1,33=-1/1,2,3,16;
 1/7=10,18=20,19=15,53=2032,62=2,63=103/22;
 3/5=7,6=11,11=9,16=1,25=1,30=1,71=1,82=7/1,2,3;
 4//1;
 5/5=2,13=1,32=2,38=5/2;
 8/6=4,10=1/1;
 9/15=2,16=-3/6;
 10/5=1,31=1/2;
 6/7=2,8=2,9=2,10=2/1;
 7/7=1,12=2,30=1,33=-1/1,2,3,16;
 1/7=10,18=20,19=15,53=1022,62=2,63=104/22;
 3/5=7,6=11,11=9,16=1,25=1,30=1,71=1,82=7/1,2,3;
 4//1;
 5/5=2,13=1,32=2,38=5/2;
 8/6=4,10=1/1;
 9/15=2,16=-3/6;
 10/5=1,31=1/2;
 6/7=2,8=2,9=2,10=2/1;
 7/7=1,12=2,30=1,33=-1/1,2,3,16;
 1/7=10,18=20,19=15,53=5015,62=2,63=105/22;
 7/9=1,44=-1/16;
 1/7=10,18=20,19=15,62=2,63=100/3(2);
 2/9=110,15=1/2;
 99//99;
 2/9=110,15=1/2;
 1/7=10,18=20,19=15,53=5173,62=2,63=100/22;
 3/5=7,6=11,11=9,16=1,25=1,30=1,71=1,82=7/1,2,3;
 4/5=5,16=3/1;
 5/5=2,13=1,32=2,38=5/2;
 8/6=4,10=1/1;
 9/15=2,16=-3/6;
 10/5=1,31=1/2;
 7/7=1,12=2,30=1,33=-1/1,2,3,16;
 1/7=10,18=20,19=15,53=4053,62=2,63=101/22;
 3/5=7,6=11,11=9,16=1,25=1,30=1,71=1,82=7/1,2,3;
 4/5=5,16=3/1;
 5/5=2,13=1,32=2,38=5/2;
 8/6=4,10=1/1;
 9/15=2,16=-3/6;
 10/5=1,31=1/2;
 7/7=1,12=2,30=1,33=-1/1,2,3,16;
 1/7=10,18=20,19=15,53=3043,62=2,63=102/22;
 3/5=7,6=11,11=9,16=1,25=1,30=1,71=1,82=7/1,2,3;
 4/5=5,16=3/1;
 5/5=2,13=1,32=2,38=5/2;
 8/6=4,10=1/1;
 9/15=2,16=-3/6;
 10/5=1,31=1/2;
 7/7=1,12=2,30=1,33=-1/1,2,3,16;
 1/7=10,18=20,19=15,53=2033,62=2,63=103/22;
 3/5=7,6=11,11=9,16=1,25=1,30=1,71=1,82=7/1,2,3;
 4/5=5,16=3/1;
 5/5=2,13=1,32=2,38=5/2;
 8/6=4,10=1/1;
 9/15=2,16=-3/6;
 10/5=1,31=1/2;
 7/7=1,12=2,30=1,33=-1/1,2,3,16;
 1/7=10,18=20,19=15,53=1024,62=2,63=104/22;
 3/5=7,6=11,11=9,16=1,25=1,30=1,71=1,82=7/1,2,3;
 4/5=5,16=3/1;
 5/5=2,13=1,32=2,38=5/2;
 8/6=4,10=1/1;
 9/15=2,16=-3/6;
 10/5=1,31=1/2;
 7/7=1,12=2,30=1,33=-1/1,2,3,16;
 1/7=10,18=20,19=15,53=5015,62=2,63=105/22;
 7/9=1,44=-1/16;
 1/7=10,18=20,19=15,62=2,63=100/3(-43);
 2/9=110,15=1/2;
 6/7=2,8=2,9=2,10=2/1;
 99//99;
 Leave Link    1 at Mon Sep  9 13:41:42 2019, MaxMem= 4294967296 cpu:       0.3
 (Enter /opt/g09gh/gaussian/g09/l101.exe)
 ---------
 Opt=tight
 ---------
 Symbolic Z-matrix:
 Charge =  0 Multiplicity = 1 in supermolecule
 Charge =  0 Multiplicity = 1 in fragment  1.
 Charge =  0 Multiplicity = 1 in fragment  2.
 C(Fragment=1)         1.6804   -0.25737   0. 
 H(Fragment=1)         2.78877  -0.42713   0. 
 O(Fragment=1)         0.98387  -1.27944   0. 
 N(Fragment=1)         1.47197   1.06623   0. 
 H(Fragment=1)         0.51175   1.43615   0. 
 H(Fragment=1)         2.30582   1.63816   0. 
 C(Fragment=2)        -1.6804    0.25737   0. 
 H(Fragment=2)        -2.78877   0.42713   0. 
 O(Fragment=2)        -0.98387   1.27944   0. 
 N(Fragment=2)        -1.47197  -1.06623   0. 
 H(Fragment=2)        -0.51175  -1.43615   0. 
 H(Fragment=2)        -2.30582  -1.63816   0. 
 
 NAtoms=     12 NQM=     12 NQMF=      0 NMic=      0 NMicF=      0 NTot=     12.
                    Isotopes and Nuclear Properties:
 (Nuclear quadrupole moments (NQMom) in fm**2, nuclear magnetic moments (NMagM)
  in nuclear magnetons)

  Atom         1           2           3           4           5           6           7           8           9          10
 IAtWgt=          12           1          16          14           1           1          12           1          16          14
 AtmWgt=  12.0000000   1.0078250  15.9949146  14.0030740   1.0078250   1.0078250  12.0000000   1.0078250  15.9949146  14.0030740
 NucSpn=           0           1           0           2           1           1           0           1           0           2
 AtZEff=   0.0000000   0.0000000   0.0000000   0.0000000   0.0000000   0.0000000   0.0000000   0.0000000   0.0000000   0.0000000
 NQMom=    0.0000000   0.0000000   0.0000000   2.0440000   0.0000000   0.0000000   0.0000000   0.0000000   0.0000000   2.0440000
 NMagM=    0.0000000   2.7928460   0.0000000   0.4037610   2.7928460   2.7928460   0.0000000   2.7928460   0.0000000   0.4037610

  Atom        11          12
 IAtWgt=           1           1
 AtmWgt=   1.0078250   1.0078250
 NucSpn=           1           1
 AtZEff=   0.0000000   0.0000000
 NQMom=    0.0000000   0.0000000
 NMagM=    2.7928460   2.7928460
 Leave Link  101 at Mon Sep  9 13:41:42 2019, MaxMem= 4294967296 cpu:       0.6
 (Enter /opt/g09gh/gaussian/g09/l103.exe)

 GradGradGradGradGradGradGradGradGradGradGradGradGradGradGradGradGradGrad
 Berny optimization.
 Initialization pass.
                           ----------------------------
                           !    Initial Parameters    !
                           ! (Angstroms and Degrees)  !
 --------------------------                            --------------------------
 ! Name  Definition              Value          Derivative Info.                !
 --------------------------------------------------------------------------------
 ! R1    R(1,2)                  1.1213         estimate D2E/DX2                !
 ! R2    R(1,3)                  1.2368         estimate D2E/DX2                !
 ! R3    R(1,4)                  1.3399         estimate D2E/DX2                !
 ! R4    R(3,11)                 1.5038         estimate D2E/DX2                !
 ! R5    R(4,5)                  1.029          estimate D2E/DX2                !
 ! R6    R(4,6)                  1.0111         estimate D2E/DX2                !
 ! R7    R(5,9)                  1.5038         estimate D2E/DX2                !
 ! R8    R(7,8)                  1.1213         estimate D2E/DX2                !
 ! R9    R(7,9)                  1.2368         estimate D2E/DX2                !
 ! R10   R(7,10)                 1.3399         estimate D2E/DX2                !
 ! R11   R(10,11)                1.029          estimate D2E/DX2                !
 ! R12   R(10,12)                1.0111         estimate D2E/DX2                !
 ! A1    A(2,1,3)              115.5663         estimate D2E/DX2                !
 ! A2    A(2,1,4)              107.6569         estimate D2E/DX2                !
 ! A3    A(3,1,4)              136.7767         estimate D2E/DX2                !
 ! A4    A(1,3,11)             130.2557         estimate D2E/DX2                !
 ! A5    A(1,4,5)              120.0178         estimate D2E/DX2                !
 ! A6    A(1,4,6)              115.4965         estimate D2E/DX2                !
 ! A7    A(5,4,6)              124.4857         estimate D2E/DX2                !
 ! A8    A(4,5,9)              152.9499         estimate D2E/DX2                !
 ! A9    A(8,7,9)              115.5663         estimate D2E/DX2                !
 ! A10   A(8,7,10)             107.6569         estimate D2E/DX2                !
 ! A11   A(9,7,10)             136.7767         estimate D2E/DX2                !
 ! A12   A(5,9,7)              130.2557         estimate D2E/DX2                !
 ! A13   A(7,10,11)            120.0178         estimate D2E/DX2                !
 ! A14   A(7,10,12)            115.4965         estimate D2E/DX2                !
 ! A15   A(11,10,12)           124.4857         estimate D2E/DX2                !
 ! A16   A(3,11,10)            152.9499         estimate D2E/DX2                !
 ! D1    D(2,1,3,11)           180.0            estimate D2E/DX2                !
 ! D2    D(4,1,3,11)             0.0            estimate D2E/DX2                !
 ! D3    D(2,1,4,5)            180.0            estimate D2E/DX2                !
 ! D4    D(2,1,4,6)              0.0            estimate D2E/DX2                !
 ! D5    D(3,1,4,5)              0.0            estimate D2E/DX2                !
 ! D6    D(3,1,4,6)            180.0            estimate D2E/DX2                !
 ! D7    D(1,3,11,10)            0.0            estimate D2E/DX2                !
 ! D8    D(1,4,5,9)              0.0            estimate D2E/DX2                !
 ! D9    D(6,4,5,9)            180.0            estimate D2E/DX2                !
 ! D10   D(4,5,9,7)              0.0            estimate D2E/DX2                !
 ! D11   D(8,7,9,5)            180.0            estimate D2E/DX2                !
 ! D12   D(10,7,9,5)             0.0            estimate D2E/DX2                !
 ! D13   D(8,7,10,11)          180.0            estimate D2E/DX2                !
 ! D14   D(8,7,10,12)            0.0            estimate D2E/DX2                !
 ! D15   D(9,7,10,11)            0.0            estimate D2E/DX2                !
 ! D16   D(9,7,10,12)          180.0            estimate D2E/DX2                !
 ! D17   D(7,10,11,3)            0.0            estimate D2E/DX2                !
 ! D18   D(12,10,11,3)         180.0            estimate D2E/DX2                !
 --------------------------------------------------------------------------------
 Trust Radius=3.00D-01 FncErr=1.00D-07 GrdErr=1.00D-07
 Number of steps in this run=  56 maximum allowed number of steps= 100.
 GradGradGradGradGradGradGradGradGradGradGradGradGradGradGradGradGradGrad

 Leave Link  103 at Mon Sep  9 13:41:42 2019, MaxMem= 4294967296 cpu:       0.1
 (Enter /opt/g09gh/gaussian/g09/l202.exe)
                          Input orientation:                          
 ---------------------------------------------------------------------
 Center     Atomic      Atomic             Coordinates (Angstroms)
 Number     Number       Type             X           Y           Z
 ---------------------------------------------------------------------
      1          6           0        1.680405   -0.257373    0.000000
      2          1           0        2.788765   -0.427131    0.000000
      3          8           0        0.983872   -1.279441    0.000000
      4          7           0        1.471971    1.066234    0.000000
      5          1           0        0.511751    1.436149    0.000000
      6          1           0        2.305816    1.638155    0.000000
      7          6           0       -1.680405    0.257373    0.000000
      8          1           0       -2.788765    0.427131    0.000000
      9          8           0       -0.983872    1.279441    0.000000
     10          7           0       -1.471971   -1.066234    0.000000
     11          1           0       -0.511751   -1.436149    0.000000
     12          1           0       -2.305816   -1.638155    0.000000
 ---------------------------------------------------------------------
                    Distance matrix (angstroms):
                    1          2          3          4          5
     1  C    0.000000
     2  H    1.121285   0.000000
     3  O    1.236843   1.996014   0.000000
     4  N    1.339918   1.991001   2.395920   0.000000
     5  H    2.057612   2.942211   2.756325   1.029009   0.000000
     6  H    1.996038   2.121002   3.203109   1.011134   1.805403
     7  C    3.400001   4.521286   3.075739   3.254494   2.488987
     8  H    4.521286   5.642571   4.140674   4.308402   3.451307
     9  O    3.075739   4.140674   3.227986   2.465081   1.503810
    10  N    3.254494   4.308402   2.465081   3.635136   3.193285
    11  H    2.488987   3.451307   1.503810   3.193285   3.049205
    12  H    4.218592   5.236539   3.309188   4.646009   4.170135
                    6          7          8          9         10
     6  H    0.000000
     7  C    4.218592   0.000000
     8  H    5.236539   1.121285   0.000000
     9  O    3.309188   1.236843   1.996014   0.000000
    10  N    4.646009   1.339918   1.991001   2.395920   0.000000
    11  H    4.170135   2.057612   2.942211   2.756325   1.029009
    12  H    5.656975   1.996038   2.121002   3.203109   1.011134
                   11         12
    11  H    0.000000
    12  H    1.805403   0.000000
 Symmetry turned off by external request.
 Stoichiometry    C2H6N2O2
 Framework group  C2H[SGH(C2H6N2O2)]
 Deg. of freedom    11
 Full point group                 C2H     NOp   4
 Rotational constants (GHZ):      5.2792537      2.7121598      1.7916955
 Mismatch for IA=    1 IOp=  2 Frag= 1 JA=    7 Frag= 2
 Mismatch for IA=    2 IOp=  2 Frag= 1 JA=    8 Frag= 2
 Mismatch for IA=    3 IOp=  2 Frag= 1 JA=    9 Frag= 2
 Mismatch for IA=    4 IOp=  2 Frag= 1 JA=   10 Frag= 2
 Mismatch for IA=    5 IOp=  2 Frag= 1 JA=   11 Frag= 2
 Mismatch for IA=    6 IOp=  2 Frag= 1 JA=   12 Frag= 2
 Mismatch for IA=    7 IOp=  2 Frag= 2 JA=    1 Frag= 1
 Mismatch for IA=    8 IOp=  2 Frag= 2 JA=    2 Frag= 1
 Mismatch for IA=    9 IOp=  2 Frag= 2 JA=    3 Frag= 1
 Mismatch for IA=   10 IOp=  2 Frag= 2 JA=    4 Frag= 1
 Mismatch for IA=   11 IOp=  2 Frag= 2 JA=    5 Frag= 1
 Mismatch for IA=   12 IOp=  2 Frag= 2 JA=    6 Frag= 1
 Symmetry turned off in CkCPSy: fragments do not conform to real system point group.
 Leave Link  202 at Mon Sep  9 13:41:42 2019, MaxMem= 4294967296 cpu:       0.1
 (Enter /opt/g09gh/gaussian/g09/l122.exe)
 Leave Link  122 at Mon Sep  9 13:41:42 2019, MaxMem= 4294967296 cpu:       0.0
 (Enter /opt/g09gh/gaussian/g09/l301.exe)
 Standard basis: CC-pVTZ (5D, 7F)
 Ernie: Thresh=  0.10000D-02 Tol=  0.10000D-05 Strict=F.
 Ernie:  18 primitive shells out of 204 were deleted.
 Integral buffers will be    131072 words long.
 Raffenetti 1 integral format.
 Two-electron integral symmetry is turned off.
   264 basis functions,   414 primitive gaussians,   300 cartesian basis functions
    24 alpha electrons       24 beta electrons
       nuclear repulsion energy       240.4627824985 Hartrees.
 IExCor=    0 DFT=F Ex=HF Corr=None ExCW=0 ScaHFX=  1.000000
 ScaDFX=  1.000000  1.000000  1.000000  1.000000 ScalE2=  1.000000  1.000000
 IRadAn=      0 IRanWt=     -1 IRanGd=            0 ICorTp=0
 NAtoms=   12 NActive=   12 NUniq=   12 SFac= 7.50D-01 NAtFMM=   80 NAOKFM=F Big=F
 Leave Link  301 at Mon Sep  9 13:41:42 2019, MaxMem= 4294967296 cpu:       0.5
 (Enter /opt/g09gh/gaussian/g09/l302.exe)
 NPDir=0 NMtPBC=     1 NCelOv=     1 NCel=       1 NClECP=     1 NCelD=      1
         NCelK=      1 NCelE2=     1 NClLst=     1 CellRange=     0.0.
 One-electron integrals computed using PRISM.
 NBasis=   264 RedAO= T  NBF=   264
 NBsUse=   264 1.00D-06 NBFU=   264
 Leave Link  302 at Mon Sep  9 13:41:43 2019, MaxMem= 4294967296 cpu:       1.9
 (Enter /opt/g09gh/gaussian/g09/l303.exe)
 DipDrv:  MaxL=1.
 Leave Link  303 at Mon Sep  9 13:41:43 2019, MaxMem= 4294967296 cpu:       0.4
 (Enter /opt/g09gh/gaussian/g09/l401.exe)
 Harris functional with IExCor=  205 diagonalized for initial guess.
 ExpMin= 1.03D-01 ExpMax= 1.53D+04 ExpMxC= 5.22D+02 IAcc=1 IRadAn=         1 AccDes= 0.00D+00
 HarFok:  IExCor=  205 AccDes= 0.00D+00 IRadAn=         1 IDoV= 1
 ScaDFX=  1.000000  1.000000  1.000000  1.000000
 FoFCou: FMM=F IPFlag=           0 FMFlag=      100000 FMFlg1=           0
         NFxFlg=           0 DoJE=T BraDBF=F KetDBF=T FulRan=T
         Omega=  0.000000  0.000000  1.000000  0.000000  0.000000 ICntrl=     500 IOpCl=  0
         NMat0=    1 NMatS0=    1 NMatT0=    0 NMatD0=    1 NMtDS0=    0 NMtDT0=    0
         I1Cent=           4 NGrid=           0.
 Symmetry not used in FoFCou.
 Harris En= -338.356816665724    
 Leave Link  401 at Mon Sep  9 13:41:43 2019, MaxMem= 4294967296 cpu:       3.5
 (Enter /opt/g09gh/gaussian/g09/l502.exe)
 Closed shell SCF:
 Requested convergence on RMS density matrix=1.00D-08 within  64 cycles.
 Requested convergence on MAX density matrix=1.00D-06.
 Requested convergence on             energy=1.00D-06.
 No special actions if energy rises.
 Using DIIS extrapolation, IDIIS=  1040.
 Two-electron integral symmetry not used.
 Keep R1 ints in memory in canonical form, NReq=1033198901.
 IEnd=      279762 IEndB=      279762 NGot=  4294967296 MDV=  3275498206
 LenX=  3275498206 LenY=  3275407765
 Symmetry not used in FoFDir.
 MinBra= 0 MaxBra= 3 Meth= 1.
 IRaf=       0 NMat=   1 IRICut=       1 DoRegI=T DoRafI=F ISym2E= 0 JSym2E=0.

 Cycle   1  Pass 1  IDiag  1:
 E= -337.701604727583    
 DIIS: error= 5.04D-02 at cycle   1 NSaved=   1.
 NSaved= 1 IEnMin= 1 EnMin= -337.701604727583     IErMin= 1 ErrMin= 5.04D-02
 ErrMax= 5.04D-02 EMaxC= 1.00D-01 BMatC= 6.71D-01 BMatP= 6.71D-01
 IDIUse=3 WtCom= 4.96D-01 WtEn= 5.04D-01
 Coeff-Com:  0.100D+01
 Coeff-En:   0.100D+01
 Coeff:      0.100D+01
 Gap=     0.565 Goal=   None    Shift=    0.000
 GapD=    0.565 DampG=2.000 DampE=0.500 DampFc=1.0000 IDamp=-1.
 RMSDP=1.88D-03 MaxDP=7.76D-02              OVMax= 1.10D-01

 Cycle   2  Pass 1  IDiag  1:
 E= -337.922061711543     Delta-E=       -0.220456983960 Rises=F Damp=F
 DIIS: error= 1.80D-02 at cycle   2 NSaved=   2.
 NSaved= 2 IEnMin= 2 EnMin= -337.922061711543     IErMin= 2 ErrMin= 1.80D-02
 ErrMax= 1.80D-02 EMaxC= 1.00D-01 BMatC= 8.27D-02 BMatP= 6.71D-01
 IDIUse=3 WtCom= 8.20D-01 WtEn= 1.80D-01
 Coeff-Com:  0.191D+00 0.809D+00
 Coeff-En:   0.000D+00 0.100D+01
 Coeff:      0.156D+00 0.844D+00
 Gap=     0.581 Goal=   None    Shift=    0.000
 RMSDP=9.23D-04 MaxDP=4.41D-02 DE=-2.20D-01 OVMax= 5.65D-02

 Cycle   3  Pass 1  IDiag  1:
 E= -337.969936453413     Delta-E=       -0.047874741870 Rises=F Damp=F
 DIIS: error= 8.15D-03 at cycle   3 NSaved=   3.
 NSaved= 3 IEnMin= 3 EnMin= -337.969936453413     IErMin= 3 ErrMin= 8.15D-03
 ErrMax= 8.15D-03 EMaxC= 1.00D-01 BMatC= 1.12D-02 BMatP= 8.27D-02
 IDIUse=3 WtCom= 9.18D-01 WtEn= 8.15D-02
 Coeff-Com: -0.237D-01 0.238D+00 0.786D+00
 Coeff-En:   0.000D+00 0.000D+00 0.100D+01
 Coeff:     -0.218D-01 0.219D+00 0.803D+00
 Gap=     0.547 Goal=   None    Shift=    0.000
 RMSDP=1.97D-04 MaxDP=5.97D-03 DE=-4.79D-02 OVMax= 1.45D-02

 Cycle   4  Pass 1  IDiag  1:
 E= -337.976649227065     Delta-E=       -0.006712773652 Rises=F Damp=F
 DIIS: error= 1.18D-03 at cycle   4 NSaved=   4.
 NSaved= 4 IEnMin= 4 EnMin= -337.976649227065     IErMin= 4 ErrMin= 1.18D-03
 ErrMax= 1.18D-03 EMaxC= 1.00D-01 BMatC= 3.96D-04 BMatP= 1.12D-02
 IDIUse=3 WtCom= 9.88D-01 WtEn= 1.18D-02
 Coeff-Com: -0.103D-01 0.509D-01 0.245D+00 0.714D+00
 Coeff-En:   0.000D+00 0.000D+00 0.000D+00 0.100D+01
 Coeff:     -0.102D-01 0.503D-01 0.243D+00 0.717D+00
 Gap=     0.547 Goal=   None    Shift=    0.000
 RMSDP=5.07D-05 MaxDP=1.28D-03 DE=-6.71D-03 OVMax= 4.73D-03

 Cycle   5  Pass 1  IDiag  1:
 E= -337.976991516926     Delta-E=       -0.000342289861 Rises=F Damp=F
 DIIS: error= 3.68D-04 at cycle   5 NSaved=   5.
 NSaved= 5 IEnMin= 5 EnMin= -337.976991516926     IErMin= 5 ErrMin= 3.68D-04
 ErrMax= 3.68D-04 EMaxC= 1.00D-01 BMatC= 3.19D-05 BMatP= 3.96D-04
 IDIUse=3 WtCom= 9.96D-01 WtEn= 3.68D-03
 Coeff-Com:  0.234D-02-0.229D-01-0.905D-01 0.390D-01 0.107D+01
 Coeff-En:   0.000D+00 0.000D+00 0.000D+00 0.000D+00 0.100D+01
 Coeff:      0.233D-02-0.229D-01-0.902D-01 0.389D-01 0.107D+01
 Gap=     0.547 Goal=   None    Shift=    0.000
 RMSDP=2.33D-05 MaxDP=6.42D-04 DE=-3.42D-04 OVMax= 2.80D-03

 Cycle   6  Pass 1  IDiag  1:
 E= -337.977045770440     Delta-E=       -0.000054253514 Rises=F Damp=F
 DIIS: error= 1.46D-04 at cycle   6 NSaved=   6.
 NSaved= 6 IEnMin= 6 EnMin= -337.977045770440     IErMin= 6 ErrMin= 1.46D-04
 ErrMax= 1.46D-04 EMaxC= 1.00D-01 BMatC= 4.26D-06 BMatP= 3.19D-05
 IDIUse=3 WtCom= 9.99D-01 WtEn= 1.46D-03
 Coeff-Com:  0.158D-02-0.106D-01-0.472D-01-0.684D-01 0.228D+00 0.897D+00
 Coeff-En:   0.000D+00 0.000D+00 0.000D+00 0.000D+00 0.000D+00 0.100D+01
 Coeff:      0.158D-02-0.106D-01-0.471D-01-0.683D-01 0.227D+00 0.897D+00
 Gap=     0.548 Goal=   None    Shift=    0.000
 RMSDP=9.15D-06 MaxDP=2.33D-04 DE=-5.43D-05 OVMax= 7.31D-04

 Cycle   7  Pass 1  IDiag  1:
 E= -337.977053367854     Delta-E=       -0.000007597414 Rises=F Damp=F
 DIIS: error= 6.15D-05 at cycle   7 NSaved=   7.
 NSaved= 7 IEnMin= 7 EnMin= -337.977053367854     IErMin= 7 ErrMin= 6.15D-05
 ErrMax= 6.15D-05 EMaxC= 1.00D-01 BMatC= 3.97D-07 BMatP= 4.26D-06
 IDIUse=1 WtCom= 1.00D+00 WtEn= 0.00D+00
 Coeff-Com: -0.311D-03 0.351D-02 0.142D-01-0.738D-02-0.136D+00-0.975D-01
 Coeff-Com:  0.122D+01
 Coeff:     -0.311D-03 0.351D-02 0.142D-01-0.738D-02-0.136D+00-0.975D-01
 Coeff:      0.122D+01
 Gap=     0.548 Goal=   None    Shift=    0.000
 RMSDP=4.03D-06 MaxDP=1.52D-04 DE=-7.60D-06 OVMax= 6.46D-04

 Cycle   8  Pass 1  IDiag  1:
 E= -337.977054804794     Delta-E=       -0.000001436940 Rises=F Damp=F
 DIIS: error= 1.63D-05 at cycle   8 NSaved=   8.
 NSaved= 8 IEnMin= 8 EnMin= -337.977054804794     IErMin= 8 ErrMin= 1.63D-05
 ErrMax= 1.63D-05 EMaxC= 1.00D-01 BMatC= 5.05D-08 BMatP= 3.97D-07
 IDIUse=1 WtCom= 1.00D+00 WtEn= 0.00D+00
 Coeff-Com: -0.137D-03 0.911D-03 0.365D-02 0.433D-02-0.326D-02-0.104D+00
 Coeff-Com: -0.750D-01 0.117D+01
 Coeff:     -0.137D-03 0.911D-03 0.365D-02 0.433D-02-0.326D-02-0.104D+00
 Coeff:     -0.750D-01 0.117D+01
 Gap=     0.548 Goal=   None    Shift=    0.000
 RMSDP=1.35D-06 MaxDP=4.38D-05 DE=-1.44D-06 OVMax= 2.14D-04

 Cycle   9  Pass 1  IDiag  1:
 E= -337.977054954428     Delta-E=       -0.000000149634 Rises=F Damp=F
 DIIS: error= 6.42D-06 at cycle   9 NSaved=   9.
 NSaved= 9 IEnMin= 9 EnMin= -337.977054954428     IErMin= 9 ErrMin= 6.42D-06
 ErrMax= 6.42D-06 EMaxC= 1.00D-01 BMatC= 4.91D-09 BMatP= 5.05D-08
 IDIUse=1 WtCom= 1.00D+00 WtEn= 0.00D+00
 Coeff-Com:  0.484D-04-0.441D-03-0.189D-02-0.127D-02 0.157D-01 0.206D-01
 Coeff-Com: -0.851D-01-0.224D+00 0.128D+01
 Coeff:      0.484D-04-0.441D-03-0.189D-02-0.127D-02 0.157D-01 0.206D-01
 Coeff:     -0.851D-01-0.224D+00 0.128D+01
 Gap=     0.548 Goal=   None    Shift=    0.000
 RMSDP=4.57D-07 MaxDP=1.27D-05 DE=-1.50D-07 OVMax= 7.47D-05

 Cycle  10  Pass 1  IDiag  1:
 E= -337.977054971232     Delta-E=       -0.000000016803 Rises=F Damp=F
 DIIS: error= 1.86D-06 at cycle  10 NSaved=  10.
 NSaved=10 IEnMin=10 EnMin= -337.977054971232     IErMin=10 ErrMin= 1.86D-06
 ErrMax= 1.86D-06 EMaxC= 1.00D-01 BMatC= 6.70D-10 BMatP= 4.91D-09
 IDIUse=1 WtCom= 1.00D+00 WtEn= 0.00D+00
 Coeff-Com:  0.316D-05 0.573D-05 0.151D-03-0.607D-03-0.366D-02 0.566D-02
 Coeff-Com:  0.436D-01-0.101D+00-0.381D+00 0.144D+01
 Coeff:      0.316D-05 0.573D-05 0.151D-03-0.607D-03-0.366D-02 0.566D-02
 Coeff:      0.436D-01-0.101D+00-0.381D+00 0.144D+01
 Gap=     0.548 Goal=   None    Shift=    0.000
 RMSDP=2.11D-07 MaxDP=6.12D-06 DE=-1.68D-08 OVMax= 2.60D-05

 Cycle  11  Pass 1  IDiag  1:
 E= -337.977054973394     Delta-E=       -0.000000002163 Rises=F Damp=F
 DIIS: error= 3.23D-07 at cycle  11 NSaved=  11.
 NSaved=11 IEnMin=11 EnMin= -337.977054973394     IErMin=11 ErrMin= 3.23D-07
 ErrMax= 3.23D-07 EMaxC= 1.00D-01 BMatC= 2.41D-11 BMatP= 6.70D-10
 IDIUse=1 WtCom= 1.00D+00 WtEn= 0.00D+00
 Coeff-Com: -0.436D-05 0.338D-04 0.129D-03 0.188D-03-0.452D-03-0.274D-02
 Coeff-Com: -0.396D-02 0.444D-01-0.146D-01-0.310D+00 0.129D+01
 Coeff:     -0.436D-05 0.338D-04 0.129D-03 0.188D-03-0.452D-03-0.274D-02
 Coeff:     -0.396D-02 0.444D-01-0.146D-01-0.310D+00 0.129D+01
 Gap=     0.548 Goal=   None    Shift=    0.000
 RMSDP=3.77D-08 MaxDP=1.30D-06 DE=-2.16D-09 OVMax= 3.54D-06

 Cycle  12  Pass 1  IDiag  1:
 E= -337.977054973463     Delta-E=       -0.000000000068 Rises=F Damp=F
 DIIS: error= 5.94D-08 at cycle  12 NSaved=  12.
 NSaved=12 IEnMin=12 EnMin= -337.977054973463     IErMin=12 ErrMin= 5.94D-08
 ErrMax= 5.94D-08 EMaxC= 1.00D-01 BMatC= 7.19D-13 BMatP= 2.41D-11
 IDIUse=1 WtCom= 1.00D+00 WtEn= 0.00D+00
 Coeff-Com:  0.500D-06-0.542D-05-0.244D-04-0.230D-04 0.184D-03 0.450D-03
 Coeff-Com: -0.936D-03-0.464D-02 0.166D-01 0.261D-02-0.238D+00 0.122D+01
 Coeff:      0.500D-06-0.542D-05-0.244D-04-0.230D-04 0.184D-03 0.450D-03
 Coeff:     -0.936D-03-0.464D-02 0.166D-01 0.261D-02-0.238D+00 0.122D+01
 Gap=     0.548 Goal=   None    Shift=    0.000
 RMSDP=6.40D-09 MaxDP=2.05D-07 DE=-6.84D-11 OVMax= 6.12D-07

 SCF Done:  E(RHF) =  -337.977054973     A.U. after   12 cycles
             Convg  =    0.6403D-08             -V/T =  2.0012
 KE= 3.375735980501D+02 PE=-1.277167133608D+03 EE= 3.611536980862D+02
 Leave Link  502 at Mon Sep  9 13:42:53 2019, MaxMem= 4294967296 cpu:     556.6
 (Enter /opt/g09gh/gaussian/g09/l801.exe)
 ExpMin= 1.03D-01 ExpMax= 1.53D+04 ExpMxC= 5.22D+02 IAcc=1 IRadAn=         1 AccDes= 0.00D+00
 HarFok:  IExCor=  205 AccDes= 0.00D+00 IRadAn=         1 IDoV=-2
 ScaDFX=  1.000000  1.000000  1.000000  1.000000
 Largest valence mixing into a core orbital is  2.18D-04
 Largest core mixing into a valence orbital is  2.98D-05
 Range of M.O.s used for correlation:     7   264
 NBasis=   264 NAE=    24 NBE=    24 NFC=     6 NFV=     0
 NROrb=    258 NOA=    18 NOB=    18 NVA=   240 NVB=   240
 Leave Link  801 at Mon Sep  9 13:42:53 2019, MaxMem= 4294967296 cpu:       0.4
 (Enter /opt/g09gh/gaussian/g09/l906.exe)
 Frozen-core derivative calculation, NFC=   6 NFV=   0.
 FulOut=F Deriv=T AODrv=T NAtomX=    12
   MMem=         326  MDisk=          18 MDiskD=          18
  W3Min=     1900800 MinDsk=     2982350 NBas6D=         300
 NBas2D=       45780    NTT=       45150    LW2=     3500000
    MDV=  4294145710 MDiskM=       71535 NBas2p=       43759
 Fully direct method using O(ONN) memory.
 IMap=   1   2   3   4   5   6   7   8   9  10  11  12  13  14  15  16  17  18  19  20
 IMap=  21  22  23  24
 JobTyp=1 Pass  1:  I=   7 to  24 NPSUse=  8 ParTrn=T ParDer=T DoDerP=T.
 Spin components of T(2) and E(2):
     alpha-alpha T2 =       0.4436902947D-01 E2=     -0.1556280309D+00
     alpha-beta  T2 =       0.2442070496D+00 E2=     -0.9151947066D+00
     beta-beta   T2 =       0.4436902947D-01 E2=     -0.1556280309D+00
 The integrals were generated   1 times.
 ANorm=    0.1154532420D+01
 E2 =    -0.1226450768D+01 EUMP2 =    -0.33920350574192D+03
 Leave Link  906 at Mon Sep  9 13:45:48 2019, MaxMem= 4294967296 cpu:    1392.0
 (Enter /opt/g09gh/gaussian/g09/l1002.exe)
 Minotr:  Closed shell wavefunction.
          Computing MP2/KS-MP2 derivatives.
          Using Z-Vector for PSCF gradient.
          Skipping F1 and S1 gradient terms here.
          IDoAtm=111111111111
          Frozen-core window.
          Direct CPHF calculation.
          Differentiating once with respect to electric field.
                with respect to dipole field.
          Differentiating once with respect to nuclear coordinates.
          Requested convergence is 1.0D-10 RMS, and 1.0D-09 maximum.
          NewPWx=F KeepS1=T KeepF1=T KeepIn=T MapXYZ=F SortEE=F KeepMc=T.
          MDV=    4294967172 using IRadAn=       0.
          Keep R1 ints in memory in canonical form, NReq=1021225618.
 Symmetry not used in FoFDir.
 MinBra= 0 MaxBra= 3 Meth= 1.
 IRaf=       0 NMat=   1 IRICut=       1 DoRegI=T DoRafI=F ISym2E= 0 JSym2E=0.
          Solving linear equations separately, MaxMat=       0.
          There are     1 degrees of freedom in the 1st order CPHF.  IDoFFX=0.
 LinEq1:  Iter=  0 NonCon=     1 RMS=4.15D-03 Max=1.59D-01
 AX will form     1 AO Fock derivatives at one time.
 LinEq1:  Iter=  1 NonCon=     1 RMS=1.15D-03 Max=2.21D-02
 LinEq1:  Iter=  2 NonCon=     1 RMS=4.18D-04 Max=8.58D-03
 LinEq1:  Iter=  3 NonCon=     1 RMS=1.86D-04 Max=4.26D-03
 LinEq1:  Iter=  4 NonCon=     1 RMS=4.62D-05 Max=6.58D-04
 LinEq1:  Iter=  5 NonCon=     1 RMS=1.15D-05 Max=2.83D-04
 LinEq1:  Iter=  6 NonCon=     1 RMS=3.75D-06 Max=5.75D-05
 LinEq1:  Iter=  7 NonCon=     1 RMS=9.72D-07 Max=1.53D-05
 LinEq1:  Iter=  8 NonCon=     1 RMS=2.39D-07 Max=3.71D-06
 LinEq1:  Iter=  9 NonCon=     1 RMS=4.99D-08 Max=1.04D-06
 LinEq1:  Iter= 10 NonCon=     1 RMS=1.07D-08 Max=2.88D-07
 LinEq1:  Iter= 11 NonCon=     1 RMS=1.84D-09 Max=3.13D-08
 LinEq1:  Iter= 12 NonCon=     1 RMS=2.48D-10 Max=2.82D-09
 LinEq1:  Iter= 13 NonCon=     0 RMS=3.65D-11 Max=3.98D-10
 Linear equations converged to 1.000D-10 1.000D-09 after    13 iterations.
 End of Minotr Frequency-dependent properties file   721 does not exist.
 End of Minotr Frequency-dependent properties file   722 does not exist.
 Leave Link 1002 at Mon Sep  9 13:46:48 2019, MaxMem= 4294967296 cpu:     483.9
 (Enter /opt/g09gh/gaussian/g09/l601.exe)
 Copying SCF densities to generalized density rwf, IOpCl= 0 IROHF=0.

 **********************************************************************

            Population analysis using the SCF density.

 **********************************************************************

 Alpha  occ. eigenvalues --  -20.52951 -20.52951 -15.57023 -15.57023 -11.35779
 Alpha  occ. eigenvalues --  -11.35779  -1.38712  -1.37453  -1.22325  -1.20678
 Alpha  occ. eigenvalues --   -0.86781  -0.80945  -0.76039  -0.74539  -0.70450
 Alpha  occ. eigenvalues --   -0.63240  -0.59913  -0.58423  -0.57777  -0.55874
 Alpha  occ. eigenvalues --   -0.45505  -0.42988  -0.40626  -0.40534
 Alpha virt. eigenvalues --    0.14269   0.14393   0.17872   0.19511   0.19579
 Alpha virt. eigenvalues --    0.20127   0.26712   0.28156   0.34102   0.36425
 Alpha virt. eigenvalues --    0.39248   0.40486   0.42655   0.46875   0.50146
 Alpha virt. eigenvalues --    0.52158   0.53334   0.54410   0.57925   0.57932
 Alpha virt. eigenvalues --    0.58340   0.62975   0.64033   0.68518   0.68632
 Alpha virt. eigenvalues --    0.70063   0.73080   0.73750   0.74304   0.74960
 Alpha virt. eigenvalues --    0.75408   0.77060   0.82989   0.83408   0.85547
 Alpha virt. eigenvalues --    0.86889   0.88610   0.95579   0.96051   0.99382
 Alpha virt. eigenvalues --    0.99537   1.02644   1.05531   1.06428   1.06953
 Alpha virt. eigenvalues --    1.10242   1.14624   1.14962   1.17155   1.18063
 Alpha virt. eigenvalues --    1.18954   1.20802   1.23727   1.24397   1.30768
 Alpha virt. eigenvalues --    1.32250   1.38689   1.41106   1.47768   1.48018
 Alpha virt. eigenvalues --    1.55220   1.58307   1.59563   1.60015   1.60986
 Alpha virt. eigenvalues --    1.61894   1.63982   1.70867   1.73500   1.74902
 Alpha virt. eigenvalues --    1.81015   1.84452   1.84588   1.92836   1.96518
 Alpha virt. eigenvalues --    1.98480   2.03415   2.04436   2.08813   2.12723
 Alpha virt. eigenvalues --    2.13172   2.17369   2.23282   2.32687   2.35519
 Alpha virt. eigenvalues --    2.37730   2.41037   2.43725   2.53984   2.55495
 Alpha virt. eigenvalues --    2.61937   2.64755   2.71211   2.74585   2.82733
 Alpha virt. eigenvalues --    2.83948   2.87381   2.93659   2.95407   2.98206
 Alpha virt. eigenvalues --    2.99111   3.05038   3.05338   3.06853   3.10021
 Alpha virt. eigenvalues --    3.16073   3.18775   3.19980   3.25654   3.27021
 Alpha virt. eigenvalues --    3.30376   3.30931   3.39487   3.40833   3.41757
 Alpha virt. eigenvalues --    3.42584   3.43664   3.44394   3.46046   3.47892
 Alpha virt. eigenvalues --    3.52787   3.52966   3.54234   3.57936   3.59589
 Alpha virt. eigenvalues --    3.60836   3.61907   3.68652   3.72736   3.73772
 Alpha virt. eigenvalues --    3.78334   3.78761   3.80246   3.81659   3.85525
 Alpha virt. eigenvalues --    3.88836   3.93057   3.96135   3.98599   3.98959
 Alpha virt. eigenvalues --    3.99122   4.04146   4.07804   4.08531   4.10829
 Alpha virt. eigenvalues --    4.15286   4.19122   4.20910   4.22453   4.22506
 Alpha virt. eigenvalues --    4.24911   4.28425   4.35107   4.35338   4.36035
 Alpha virt. eigenvalues --    4.39923   4.41647   4.43458   4.47083   4.49978
 Alpha virt. eigenvalues --    4.53254   4.54960   4.57381   4.58737   4.59704
 Alpha virt. eigenvalues --    4.62305   4.64985   4.76600   4.78255   4.84278
 Alpha virt. eigenvalues --    4.94114   4.95306   4.95918   4.97243   5.03680
 Alpha virt. eigenvalues --    5.03709   5.10335   5.12544   5.16488   5.19105
 Alpha virt. eigenvalues --    5.20555   5.21215   5.23988   5.25631   5.32310
 Alpha virt. eigenvalues --    5.41575   5.45913   5.46088   5.53865   5.53910
 Alpha virt. eigenvalues --    5.61601   5.66673   5.67388   5.69525   5.76001
 Alpha virt. eigenvalues --    5.82994   5.86141   5.89421   5.89640   5.91553
 Alpha virt. eigenvalues --    5.93893   6.01579   6.05855   6.06553   6.09016
 Alpha virt. eigenvalues --    6.12096   6.26277   6.27417   6.39565   6.41780
 Alpha virt. eigenvalues --    6.57593   6.59213   6.70867   6.71287   6.73804
 Alpha virt. eigenvalues --    6.81232   6.84043   6.94788   6.99060   6.99257
 Alpha virt. eigenvalues --    7.03224   7.15751   7.24093   7.25895   7.36248
 Alpha virt. eigenvalues --    7.36563   7.39183   7.41800   7.59908   7.65539
 Alpha virt. eigenvalues --    7.83687   7.86860   8.08631   8.10327  10.49538
 Alpha virt. eigenvalues --   10.64927  13.07156  13.35649  14.90035  14.95620
          Condensed to atoms (all electrons):
              1          2          3          4          5          6
     1  C    4.298125   0.446312   0.623145   0.413717  -0.015771  -0.021777
     2  H    0.446312   0.649509  -0.055332  -0.111773   0.005405  -0.006443
     3  O    0.623145  -0.055332   7.991992  -0.083363  -0.000304   0.002631
     4  N    0.413717  -0.111773  -0.083363   6.419921   0.368435   0.373310
     5  H   -0.015771   0.005405  -0.000304   0.368435   0.356166  -0.029756
     6  H   -0.021777  -0.006443   0.002631   0.373310  -0.029756   0.496247
     7  C    0.003502   0.000200   0.005736  -0.002254  -0.009342   0.000199
     8  H    0.000200  -0.000012  -0.000331  -0.000552   0.000720   0.000040
     9  O    0.005736  -0.000331  -0.003001  -0.073534   0.059756   0.003083
    10  N   -0.002254  -0.000552  -0.073534   0.002244   0.000262  -0.000084
    11  H   -0.009342   0.000720   0.059756   0.000262   0.000794  -0.000079
    12  H    0.000199   0.000040   0.003083  -0.000084  -0.000079   0.000002
              7          8          9         10         11         12
     1  C    0.003502   0.000200   0.005736  -0.002254  -0.009342   0.000199
     2  H    0.000200  -0.000012  -0.000331  -0.000552   0.000720   0.000040
     3  O    0.005736  -0.000331  -0.003001  -0.073534   0.059756   0.003083
     4  N   -0.002254  -0.000552  -0.073534   0.002244   0.000262  -0.000084
     5  H   -0.009342   0.000720   0.059756   0.000262   0.000794  -0.000079
     6  H    0.000199   0.000040   0.003083  -0.000084  -0.000079   0.000002
     7  C    4.298125   0.446312   0.623145   0.413717  -0.015771  -0.021777
     8  H    0.446312   0.649509  -0.055332  -0.111773   0.005405  -0.006443
     9  O    0.623145  -0.055332   7.991992  -0.083363  -0.000304   0.002631
    10  N    0.413717  -0.111773  -0.083363   6.419921   0.368435   0.373310
    11  H   -0.015771   0.005405  -0.000304   0.368435   0.356166  -0.029756
    12  H   -0.021777  -0.006443   0.002631   0.373310  -0.029756   0.496247
 Mulliken atomic charges:
              1
     1  C    0.258209
     2  H    0.072256
     3  O   -0.470477
     4  N   -0.306329
     5  H    0.263714
     6  H    0.182627
     7  C    0.258209
     8  H    0.072256
     9  O   -0.470477
    10  N   -0.306329
    11  H    0.263714
    12  H    0.182627
 Sum of Mulliken atomic charges =   0.00000
 Mulliken charges with hydrogens summed into heavy atoms:
              1
     1  C    0.330465
     3  O   -0.470477
     4  N    0.140012
     7  C    0.330465
     9  O   -0.470477
    10  N    0.140012
 Sum of Mulliken charges with hydrogens summed into heavy atoms =   0.00000
          Condensed to fragments (all electrons):
     1       0.000000
     2       0.000000
 Electronic spatial extent (au):  <R**2>=            641.3552
 Charge=              0.0000 electrons
 Dipole moment (field-independent basis, Debye):
    X=              0.0000    Y=              0.0000    Z=              0.0000  Tot=              0.0000
 Quadrupole moment (field-independent basis, Debye-Ang):
   XX=            -23.2135   YY=            -37.4628   ZZ=            -37.4032
   XY=              9.1334   XZ=              0.0000   YZ=              0.0000
 Traceless Quadrupole moment (field-independent basis, Debye-Ang):
   XX=              9.4797   YY=             -4.7696   ZZ=             -4.7100
   XY=              9.1334   XZ=              0.0000   YZ=              0.0000
 Octapole moment (field-independent basis, Debye-Ang**2):
  XXX=              0.0000  YYY=              0.0000  ZZZ=              0.0000  XYY=              0.0000
  XXY=              0.0000  XXZ=              0.0000  XZZ=              0.0000  YZZ=              0.0000
  YYZ=              0.0000  XYZ=              0.0000
 Hexadecapole moment (field-independent basis, Debye-Ang**3):
 XXXX=           -406.6760 YYYY=           -243.9280 ZZZZ=            -33.4414 XXXY=             31.6403
 XXXZ=              0.0000 YYYX=             33.1565 YYYZ=              0.0000 ZZZX=              0.0000
 ZZZY=              0.0000 XXYY=           -107.7136 XXZZ=            -95.7737 YYZZ=            -51.0354
 XXYZ=              0.0000 YYXZ=              0.0000 ZZXY=             -5.2427
 N-N= 2.404627824985D+02 E-N=-1.277167132133D+03  KE= 3.375735980501D+02
 No NMR shielding tensors so no spin-rotation constants.
 Leave Link  601 at Mon Sep  9 13:46:48 2019, MaxMem= 4294967296 cpu:       1.5
 (Enter /opt/g09gh/gaussian/g09/l701.exe)
 Compute integral first derivatives.
 ... and contract with generalized density number  2.
 Leave Link  701 at Mon Sep  9 13:46:49 2019, MaxMem= 4294967296 cpu:       1.9
 (Enter /opt/g09gh/gaussian/g09/l702.exe)
 L702 exits ... SP integral derivatives will be done elsewhere.
 Leave Link  702 at Mon Sep  9 13:46:49 2019, MaxMem= 4294967296 cpu:       0.1
 (Enter /opt/g09gh/gaussian/g09/l703.exe)
 Compute integral first derivatives, UseDBF=F ICtDFT=           0.
 Integral derivatives from FoFDir, PRISM(SPDF).
 Calling FoFJK, ICntrl=      2127 FMM=F ISym2X=0 I1Cent= 0 IOpClX= 0 NMat=1 NMatS=1 NMatT=0.
 FoFCou: FMM=F IPFlag=           0 FMFlag=      100000 FMFlg1=         800
         NFxFlg=           0 DoJE=F BraDBF=F KetDBF=F FulRan=T
         Omega=  0.000000  0.000000  1.000000  0.000000  0.000000 ICntrl=    2127 IOpCl=  0
         NMat0=    1 NMatS0=    1 NMatT0=    0 NMatD0=    1 NMtDS0=    0 NMtDT0=    0
         I1Cent=           0 NGrid=           0.
 Symmetry not used in FoFCou.
 Leave Link  703 at Mon Sep  9 13:47:04 2019, MaxMem= 4294967296 cpu:     119.2
 (Enter /opt/g09gh/gaussian/g09/l716.exe)
 Dipole        =-4.34319247D-13 1.32160949D-12-2.85705081D-16
 Cartesian Forces:  Max     0.054434441 RMS     0.014280033
 Leave Link  716 at Mon Sep  9 13:47:04 2019, MaxMem= 4294967296 cpu:       0.3
 (Enter /opt/g09gh/gaussian/g09/l122.exe)
 Counterpoise: doing DCBS calculation for fragment   1 NewBq=T
 Leave Link  122 at Mon Sep  9 13:47:04 2019, MaxMem= 4294967296 cpu:       0.0
 (Enter /opt/g09gh/gaussian/g09/l301.exe)
 Basis read from rwf:  (5D, 7F)
 No pseudopotential information found on rwf file.
 Integral buffers will be    131072 words long.
 Raffenetti 1 integral format.
 Two-electron integral symmetry is turned off.
   264 basis functions,   414 primitive gaussians,   300 cartesian basis functions
    12 alpha electrons       12 beta electrons
       nuclear repulsion energy        70.2823189470 Hartrees.
 IExCor=    0 DFT=F Ex=HF Corr=None ExCW=0 ScaHFX=  1.000000
 ScaDFX=  1.000000  1.000000  1.000000  1.000000 ScalE2=  1.000000  1.000000
 IRadAn=      0 IRanWt=     -1 IRanGd=            0 ICorTp=0
 NAtoms=   12 NActive=   12 NUniq=   12 SFac= 7.50D-01 NAtFMM=   80 NAOKFM=F Big=F
 No density basis found on file   718.
 Leave Link  301 at Mon Sep  9 13:47:04 2019, MaxMem= 4294967296 cpu:       0.6
 (Enter /opt/g09gh/gaussian/g09/l302.exe)
 NPDir=0 NMtPBC=     1 NCelOv=     1 NCel=       1 NClECP=     1 NCelD=      1
         NCelK=      1 NCelE2=     1 NClLst=     1 CellRange=     0.0.
 One-electron integrals computed using PRISM.
 NBasis=   264 RedAO= T  NBF=   264
 NBsUse=   264 1.00D-06 NBFU=   264
 Leave Link  302 at Mon Sep  9 13:47:04 2019, MaxMem= 4294967296 cpu:       1.7
 (Enter /opt/g09gh/gaussian/g09/l303.exe)
 DipDrv:  MaxL=1.
 Leave Link  303 at Mon Sep  9 13:47:04 2019, MaxMem= 4294967296 cpu:       0.3
 (Enter /opt/g09gh/gaussian/g09/l401.exe)
 Harris functional with IExCor=  205 diagonalized for initial guess.
 ExpMin= 1.03D-01 ExpMax= 1.53D+04 ExpMxC= 5.22D+02 IAcc=1 IRadAn=         1 AccDes= 0.00D+00
 HarFok:  IExCor=  205 AccDes= 0.00D+00 IRadAn=         1 IDoV= 1
 ScaDFX=  1.000000  1.000000  1.000000  1.000000
 FoFCou: FMM=F IPFlag=           0 FMFlag=      100000 FMFlg1=           0
         NFxFlg=           0 DoJE=T BraDBF=F KetDBF=T FulRan=T
         Omega=  0.000000  0.000000  1.000000  0.000000  0.000000 ICntrl=     500 IOpCl=  0
         NMat0=    1 NMatS0=    1 NMatT0=    0 NMatD0=    1 NMtDS0=    0 NMtDT0=    0
         I1Cent=           4 NGrid=           0.
 Symmetry not used in FoFCou.
 Harris En= -169.174606575924    
 Leave Link  401 at Mon Sep  9 13:47:05 2019, MaxMem= 4294967296 cpu:       3.1
 (Enter /opt/g09gh/gaussian/g09/l502.exe)
 Closed shell SCF:
 Requested convergence on RMS density matrix=1.00D-08 within  64 cycles.
 Requested convergence on MAX density matrix=1.00D-06.
 Requested convergence on             energy=1.00D-06.
 No special actions if energy rises.
 Using DIIS extrapolation, IDIIS=  1040.
 Two-electron integral symmetry not used.
 Keep R1 ints in memory in canonical form, NReq=1033198901.
 IEnd=      279762 IEndB=      279762 NGot=  4294967296 MDV=  3275498206
 LenX=  3275498206 LenY=  3275407765
 Symmetry not used in FoFDir.
 MinBra= 0 MaxBra= 3 Meth= 1.
 IRaf=       0 NMat=   1 IRICut=       1 DoRegI=T DoRafI=F ISym2E= 0 JSym2E=0.

 Cycle   1  Pass 1  IDiag  1:
 E= -168.836950396499    
 DIIS: error= 2.75D-02 at cycle   1 NSaved=   1.
 NSaved= 1 IEnMin= 1 EnMin= -168.836950396499     IErMin= 1 ErrMin= 2.75D-02
 ErrMax= 2.75D-02 EMaxC= 1.00D-01 BMatC= 3.46D-01 BMatP= 3.46D-01
 IDIUse=3 WtCom= 7.25D-01 WtEn= 2.75D-01
 Coeff-Com:  0.100D+01
 Coeff-En:   0.100D+01
 Coeff:      0.100D+01
 Gap=     0.574 Goal=   None    Shift=    0.000
 GapD=    0.574 DampG=2.000 DampE=0.500 DampFc=1.0000 IDamp=-1.
 RMSDP=1.59D-03 MaxDP=1.12D-01              OVMax= 1.40D-01

 Cycle   2  Pass 1  IDiag  1:
 E= -168.949700843319     Delta-E=       -0.112750446820 Rises=F Damp=F
 DIIS: error= 1.25D-02 at cycle   2 NSaved=   2.
 NSaved= 2 IEnMin= 2 EnMin= -168.949700843319     IErMin= 2 ErrMin= 1.25D-02
 ErrMax= 1.25D-02 EMaxC= 1.00D-01 BMatC= 5.91D-02 BMatP= 3.46D-01
 IDIUse=3 WtCom= 8.75D-01 WtEn= 1.25D-01
 Coeff-Com:  0.232D+00 0.768D+00
 Coeff-En:   0.000D+00 0.100D+01
 Coeff:      0.203D+00 0.797D+00
 Gap=     0.560 Goal=   None    Shift=    0.000
 RMSDP=8.43D-04 MaxDP=6.52D-02 DE=-1.13D-01 OVMax= 6.36D-02

 Cycle   3  Pass 1  IDiag  1:
 E= -168.983393736065     Delta-E=       -0.033692892745 Rises=F Damp=F
 DIIS: error= 5.29D-03 at cycle   3 NSaved=   3.
 NSaved= 3 IEnMin= 3 EnMin= -168.983393736065     IErMin= 3 ErrMin= 5.29D-03
 ErrMax= 5.29D-03 EMaxC= 1.00D-01 BMatC= 8.52D-03 BMatP= 5.91D-02
 IDIUse=3 WtCom= 9.47D-01 WtEn= 5.29D-02
 Coeff-Com: -0.178D-01 0.250D+00 0.768D+00
 Coeff-En:   0.000D+00 0.000D+00 0.100D+01
 Coeff:     -0.168D-01 0.237D+00 0.780D+00
 Gap=     0.532 Goal=   None    Shift=    0.000
 RMSDP=1.75D-04 MaxDP=8.73D-03 DE=-3.37D-02 OVMax= 2.78D-02

 Cycle   4  Pass 1  IDiag  1:
 E= -168.988590494403     Delta-E=       -0.005196758338 Rises=F Damp=F
 DIIS: error= 9.63D-04 at cycle   4 NSaved=   4.
 NSaved= 4 IEnMin= 4 EnMin= -168.988590494403     IErMin= 4 ErrMin= 9.63D-04
 ErrMax= 9.63D-04 EMaxC= 1.00D-01 BMatC= 4.03D-04 BMatP= 8.52D-03
 IDIUse=3 WtCom= 9.90D-01 WtEn= 9.63D-03
 Coeff-Com: -0.131D-01 0.545D-01 0.263D+00 0.695D+00
 Coeff-En:   0.000D+00 0.000D+00 0.000D+00 0.100D+01
 Coeff:     -0.129D-01 0.540D-01 0.261D+00 0.698D+00
 Gap=     0.523 Goal=   None    Shift=    0.000
 RMSDP=4.90D-05 MaxDP=2.04D-03 DE=-5.20D-03 OVMax= 4.84D-03

 Cycle   5  Pass 1  IDiag  1:
 E= -168.988935446732     Delta-E=       -0.000344952329 Rises=F Damp=F
 DIIS: error= 2.62D-04 at cycle   5 NSaved=   5.
 NSaved= 5 IEnMin= 5 EnMin= -168.988935446732     IErMin= 5 ErrMin= 2.62D-04
 ErrMax= 2.62D-04 EMaxC= 1.00D-01 BMatC= 1.85D-05 BMatP= 4.03D-04
 IDIUse=3 WtCom= 9.97D-01 WtEn= 2.62D-03
 Coeff-Com:  0.316D-02-0.247D-01-0.103D+00-0.842D-01 0.121D+01
 Coeff-En:   0.000D+00 0.000D+00 0.000D+00 0.000D+00 0.100D+01
 Coeff:      0.315D-02-0.246D-01-0.103D+00-0.840D-01 0.121D+01
 Gap=     0.523 Goal=   None    Shift=    0.000
 RMSDP=2.71D-05 MaxDP=1.57D-03 DE=-3.45D-04 OVMax= 4.34D-03

 Cycle   6  Pass 1  IDiag  1:
 E= -168.988984051404     Delta-E=       -0.000048604672 Rises=F Damp=F
 DIIS: error= 9.35D-05 at cycle   6 NSaved=   6.
 NSaved= 6 IEnMin= 6 EnMin= -168.988984051404     IErMin= 6 ErrMin= 9.35D-05
 ErrMax= 9.35D-05 EMaxC= 1.00D-01 BMatC= 3.12D-06 BMatP= 1.85D-05
 IDIUse=1 WtCom= 1.00D+00 WtEn= 0.00D+00
 Coeff-Com:  0.170D-02-0.969D-02-0.411D-01-0.952D-01 0.193D+00 0.951D+00
 Coeff:      0.170D-02-0.969D-02-0.411D-01-0.952D-01 0.193D+00 0.951D+00
 Gap=     0.524 Goal=   None    Shift=    0.000
 RMSDP=1.08D-05 MaxDP=6.72D-04 DE=-4.86D-05 OVMax= 1.23D-03

 Cycle   7  Pass 1  IDiag  1:
 E= -168.988990637446     Delta-E=       -0.000006586043 Rises=F Damp=F
 DIIS: error= 3.42D-05 at cycle   7 NSaved=   7.
 NSaved= 7 IEnMin= 7 EnMin= -168.988990637446     IErMin= 7 ErrMin= 3.42D-05
 ErrMax= 3.42D-05 EMaxC= 1.00D-01 BMatC= 4.07D-07 BMatP= 3.12D-06
 IDIUse=1 WtCom= 1.00D+00 WtEn= 0.00D+00
 Coeff-Com: -0.500D-03 0.426D-02 0.197D-01 0.874D-02-0.179D+00-0.694D-01
 Coeff-Com:  0.122D+01
 Coeff:     -0.500D-03 0.426D-02 0.197D-01 0.874D-02-0.179D+00-0.694D-01
 Coeff:      0.122D+01
 Gap=     0.524 Goal=   None    Shift=    0.000
 RMSDP=4.90D-06 MaxDP=2.78D-04 DE=-6.59D-06 OVMax= 7.91D-04

 Cycle   8  Pass 1  IDiag  1:
 E= -168.988991869666     Delta-E=       -0.000001232220 Rises=F Damp=F
 DIIS: error= 1.02D-05 at cycle   8 NSaved=   8.
 NSaved= 8 IEnMin= 8 EnMin= -168.988991869666     IErMin= 8 ErrMin= 1.02D-05
 ErrMax= 1.02D-05 EMaxC= 1.00D-01 BMatC= 3.52D-08 BMatP= 4.07D-07
 IDIUse=1 WtCom= 1.00D+00 WtEn= 0.00D+00
 Coeff-Com: -0.553D-04 0.970D-04-0.157D-03 0.330D-02 0.248D-01-0.623D-01
 Coeff-Com: -0.311D+00 0.135D+01
 Coeff:     -0.553D-04 0.970D-04-0.157D-03 0.330D-02 0.248D-01-0.623D-01
 Coeff:     -0.311D+00 0.135D+01
 Gap=     0.524 Goal=   None    Shift=    0.000
 RMSDP=1.63D-06 MaxDP=8.25D-05 DE=-1.23D-06 OVMax= 2.68D-04

 Cycle   9  Pass 1  IDiag  1:
 E= -168.988991997614     Delta-E=       -0.000000127948 Rises=F Damp=F
 DIIS: error= 2.61D-06 at cycle   9 NSaved=   9.
 NSaved= 9 IEnMin= 9 EnMin= -168.988991997614     IErMin= 9 ErrMin= 2.61D-06
 ErrMax= 2.61D-06 EMaxC= 1.00D-01 BMatC= 3.71D-09 BMatP= 3.52D-08
 IDIUse=1 WtCom= 1.00D+00 WtEn= 0.00D+00
 Coeff-Com:  0.624D-04-0.441D-03-0.156D-02-0.311D-02 0.889D-02 0.305D-01
 Coeff-Com: -0.365D-02-0.466D+00 0.143D+01
 Coeff:      0.624D-04-0.441D-03-0.156D-02-0.311D-02 0.889D-02 0.305D-01
 Coeff:     -0.365D-02-0.466D+00 0.143D+01
 Gap=     0.524 Goal=   None    Shift=    0.000
 RMSDP=4.80D-07 MaxDP=2.30D-05 DE=-1.28D-07 OVMax= 6.84D-05

 Cycle  10  Pass 1  IDiag  1:
 E= -168.988992009465     Delta-E=       -0.000000011851 Rises=F Damp=F
 DIIS: error= 8.28D-07 at cycle  10 NSaved=  10.
 NSaved=10 IEnMin=10 EnMin= -168.988992009465     IErMin=10 ErrMin= 8.28D-07
 ErrMax= 8.28D-07 EMaxC= 1.00D-01 BMatC= 2.62D-10 BMatP= 3.71D-09
 IDIUse=1 WtCom= 1.00D+00 WtEn= 0.00D+00
 Coeff-Com: -0.143D-05 0.310D-04 0.282D-03-0.115D-03-0.411D-02 0.369D-02
 Coeff-Com:  0.347D-01-0.843D-01-0.186D+00 0.124D+01
 Coeff:     -0.143D-05 0.310D-04 0.282D-03-0.115D-03-0.411D-02 0.369D-02
 Coeff:      0.347D-01-0.843D-01-0.186D+00 0.124D+01
 Gap=     0.524 Goal=   None    Shift=    0.000
 RMSDP=1.24D-07 MaxDP=5.95D-06 DE=-1.19D-08 OVMax= 1.39D-05

 Cycle  11  Pass 1  IDiag  1:
 E= -168.988992010137     Delta-E=       -0.000000000672 Rises=F Damp=F
 DIIS: error= 1.22D-07 at cycle  11 NSaved=  11.
 NSaved=11 IEnMin=11 EnMin= -168.988992010137     IErMin=11 ErrMin= 1.22D-07
 ErrMax= 1.22D-07 EMaxC= 1.00D-01 BMatC= 5.94D-12 BMatP= 2.62D-10
 IDIUse=1 WtCom= 1.00D+00 WtEn= 0.00D+00
 Coeff-Com: -0.245D-05 0.155D-04 0.293D-04 0.156D-03 0.567D-04-0.114D-02
 Coeff-Com: -0.591D-02 0.326D-01-0.245D-01-0.218D+00 0.122D+01
 Coeff:     -0.245D-05 0.155D-04 0.293D-04 0.156D-03 0.567D-04-0.114D-02
 Coeff:     -0.591D-02 0.326D-01-0.245D-01-0.218D+00 0.122D+01
 Gap=     0.524 Goal=   None    Shift=    0.000
 RMSDP=1.48D-08 MaxDP=5.69D-07 DE=-6.72D-10 OVMax= 2.03D-06

 Cycle  12  Pass 1  IDiag  1:
 E= -168.988992010149     Delta-E=       -0.000000000012 Rises=F Damp=F
 DIIS: error= 1.76D-08 at cycle  12 NSaved=  12.
 NSaved=12 IEnMin=12 EnMin= -168.988992010149     IErMin=12 ErrMin= 1.76D-08
 ErrMax= 1.76D-08 EMaxC= 1.00D-01 BMatC= 1.78D-13 BMatP= 5.94D-12
 IDIUse=1 WtCom= 1.00D+00 WtEn= 0.00D+00
 Coeff-Com:  0.342D-06-0.298D-05-0.998D-05-0.276D-04 0.705D-04 0.226D-03
 Coeff-Com:  0.113D-03-0.424D-02 0.117D-01-0.278D-02-0.199D+00 0.119D+01
 Coeff:      0.342D-06-0.298D-05-0.998D-05-0.276D-04 0.705D-04 0.226D-03
 Coeff:      0.113D-03-0.424D-02 0.117D-01-0.278D-02-0.199D+00 0.119D+01
 Gap=     0.524 Goal=   None    Shift=    0.000
 RMSDP=2.85D-09 MaxDP=1.23D-07 DE=-1.15D-11 OVMax= 3.15D-07

 SCF Done:  E(RHF) =  -168.988992010     A.U. after   12 cycles
             Convg  =    0.2848D-08             -V/T =  2.0024
 KE= 1.685901544293D+02 PE=-5.383435197267D+02 EE= 1.304820543403D+02
 Leave Link  502 at Mon Sep  9 13:47:49 2019, MaxMem= 4294967296 cpu:     355.6
 (Enter /opt/g09gh/gaussian/g09/l801.exe)
 ExpMin= 1.03D-01 ExpMax= 1.53D+04 ExpMxC= 5.22D+02 IAcc=1 IRadAn=         1 AccDes= 0.00D+00
 HarFok:  IExCor=  205 AccDes= 0.00D+00 IRadAn=         1 IDoV=-2
 ScaDFX=  1.000000  1.000000  1.000000  1.000000
 Largest valence mixing into a core orbital is  2.16D-04
 Largest core mixing into a valence orbital is  2.90D-05
 Range of M.O.s used for correlation:     4   264
 NBasis=   264 NAE=    12 NBE=    12 NFC=     3 NFV=     0
 NROrb=    261 NOA=     9 NOB=     9 NVA=   252 NVB=   252
 Leave Link  801 at Mon Sep  9 13:47:49 2019, MaxMem= 4294967296 cpu:       0.3
 (Enter /opt/g09gh/gaussian/g09/l906.exe)
 Frozen-core derivative calculation, NFC=   3 NFV=   0.
 FulOut=F Deriv=T AODrv=T NAtomX=    12
   MMem=         326  MDisk=           9 MDiskD=           9
  W3Min=      950400 MinDsk=     1898750 NBas6D=         300
 NBas2D=       45780    NTT=       45150    LW2=     3500000
    MDV=  4294142950 MDiskM=       71535 NBas2p=       43759
 Fully direct method using O(ONN) memory.
 IMap=   1   2   3   4   5   6   7   8   9  10  11  12
 JobTyp=1 Pass  1:  I=   4 to  12 NPSUse=  8 ParTrn=T ParDer=T DoDerP=T.
 Spin components of T(2) and E(2):
     alpha-alpha T2 =       0.2201653488D-01 E2=     -0.7629537895D-01
     alpha-beta  T2 =       0.1238999324D+00 E2=     -0.4571731946D+00
     beta-beta   T2 =       0.2201653488D-01 E2=     -0.7629537895D-01
 The integrals were generated   1 times.
 ANorm=    0.1080709490D+01
 E2 =    -0.6097639525D+00 EUMP2 =    -0.16959875596261D+03
 Leave Link  906 at Mon Sep  9 13:48:57 2019, MaxMem= 4294967296 cpu:     539.4
 (Enter /opt/g09gh/gaussian/g09/l1002.exe)
 Minotr:  Closed shell wavefunction.
          Computing MP2/KS-MP2 derivatives.
          Using Z-Vector for PSCF gradient.
          Skipping F1 and S1 gradient terms here.
          IDoAtm=111111111111
          Frozen-core window.
          Direct CPHF calculation.
          Differentiating once with respect to electric field.
                with respect to dipole field.
          Differentiating once with respect to nuclear coordinates.
          Requested convergence is 1.0D-10 RMS, and 1.0D-09 maximum.
          NewPWx=F KeepS1=T KeepF1=T KeepIn=T MapXYZ=F SortEE=F KeepMc=T.
          MDV=    4294967172 using IRadAn=       0.
          Keep R1 ints in memory in canonical form, NReq=1021225618.
 Symmetry not used in FoFDir.
 MinBra= 0 MaxBra= 3 Meth= 1.
 IRaf=       0 NMat=   1 IRICut=       1 DoRegI=T DoRafI=F ISym2E= 0 JSym2E=0.
          Solving linear equations separately, MaxMat=       0.
          There are     1 degrees of freedom in the 1st order CPHF.  IDoFFX=0.
 LinEq1:  Iter=  0 NonCon=     1 RMS=4.10D-03 Max=1.42D-01
 AX will form     1 AO Fock derivatives at one time.
 LinEq1:  Iter=  1 NonCon=     1 RMS=1.22D-03 Max=2.65D-02
 LinEq1:  Iter=  2 NonCon=     1 RMS=4.48D-04 Max=6.97D-03
 LinEq1:  Iter=  3 NonCon=     1 RMS=2.06D-04 Max=4.04D-03
 LinEq1:  Iter=  4 NonCon=     1 RMS=4.53D-05 Max=7.55D-04
 LinEq1:  Iter=  5 NonCon=     1 RMS=7.06D-06 Max=9.46D-05
 LinEq1:  Iter=  6 NonCon=     1 RMS=1.81D-06 Max=4.59D-05
 LinEq1:  Iter=  7 NonCon=     1 RMS=4.64D-07 Max=7.13D-06
 LinEq1:  Iter=  8 NonCon=     1 RMS=1.50D-07 Max=2.71D-06
 LinEq1:  Iter=  9 NonCon=     1 RMS=4.67D-08 Max=4.43D-07
 LinEq1:  Iter= 10 NonCon=     1 RMS=1.04D-08 Max=8.47D-08
 LinEq1:  Iter= 11 NonCon=     1 RMS=1.49D-09 Max=1.77D-08
 LinEq1:  Iter= 12 NonCon=     1 RMS=1.96D-10 Max=2.41D-09
 LinEq1:  Iter= 13 NonCon=     0 RMS=2.38D-11 Max=2.16D-10
 Linear equations converged to 1.000D-10 1.000D-09 after    13 iterations.
 End of Minotr Frequency-dependent properties file   721 does not exist.
 End of Minotr Frequency-dependent properties file   722 does not exist.
 Leave Link 1002 at Mon Sep  9 13:49:42 2019, MaxMem= 4294967296 cpu:     362.6
 (Enter /opt/g09gh/gaussian/g09/l601.exe)
 Copying SCF densities to generalized density rwf, IOpCl= 0 IROHF=0.

 **********************************************************************

            Population analysis using the SCF density.

 **********************************************************************

 Alpha  occ. eigenvalues --  -20.52781 -15.61015 -11.35803  -1.36602  -1.23745
 Alpha  occ. eigenvalues --   -0.84697  -0.75849  -0.67027  -0.59677  -0.57034
 Alpha  occ. eigenvalues --   -0.42744  -0.42489
 Alpha virt. eigenvalues --    0.09915   0.12702   0.15641   0.18603   0.18823
 Alpha virt. eigenvalues --    0.20994   0.25638   0.27729   0.30565   0.32822
 Alpha virt. eigenvalues --    0.37150   0.37481   0.40377   0.44798   0.47291
 Alpha virt. eigenvalues --    0.47930   0.51704   0.53652   0.56245   0.58848
 Alpha virt. eigenvalues --    0.61591   0.62392   0.64226   0.66151   0.66704
 Alpha virt. eigenvalues --    0.67906   0.71541   0.73802   0.73835   0.78070
 Alpha virt. eigenvalues --    0.82486   0.85830   0.89370   0.91266   0.92213
 Alpha virt. eigenvalues --    0.93590   0.97304   0.99455   1.00634   1.03217
 Alpha virt. eigenvalues --    1.04831   1.08601   1.11693   1.12430   1.15671
 Alpha virt. eigenvalues --    1.16315   1.17348   1.21911   1.23646   1.23961
 Alpha virt. eigenvalues --    1.25706   1.25963   1.33766   1.35875   1.36915
 Alpha virt. eigenvalues --    1.37801   1.41295   1.44076   1.44333   1.46821
 Alpha virt. eigenvalues --    1.48861   1.56132   1.58487   1.60174   1.62043
 Alpha virt. eigenvalues --    1.66760   1.67757   1.76884   1.78100   1.81495
 Alpha virt. eigenvalues --    1.82603   1.86659   1.91706   1.97130   2.02802
 Alpha virt. eigenvalues --    2.04860   2.05351   2.10651   2.17147   2.22958
 Alpha virt. eigenvalues --    2.25590   2.30735   2.34473   2.37398   2.39589
 Alpha virt. eigenvalues --    2.40388   2.44523   2.47018   2.51540   2.52187
 Alpha virt. eigenvalues --    2.56484   2.64311   2.66131   2.70015   2.78303
 Alpha virt. eigenvalues --    2.82643   2.86918   2.89771   2.94450   2.95924
 Alpha virt. eigenvalues --    2.98620   3.02911   3.04884   3.15186   3.16430
 Alpha virt. eigenvalues --    3.17143   3.22930   3.28444   3.31061   3.34509
 Alpha virt. eigenvalues --    3.40270   3.44489   3.45038   3.51216   3.53574
 Alpha virt. eigenvalues --    3.54711   3.56544   3.60008   3.63636   3.68809
 Alpha virt. eigenvalues --    3.71355   3.73242   3.77071   3.77336   3.81987
 Alpha virt. eigenvalues --    3.84635   3.88089   3.90932   3.94018   3.94425
 Alpha virt. eigenvalues --    3.97926   4.00159   4.00978   4.03740   4.05193
 Alpha virt. eigenvalues --    4.07921   4.15562   4.17800   4.22861   4.26533
 Alpha virt. eigenvalues --    4.27446   4.29901   4.29907   4.31554   4.35532
 Alpha virt. eigenvalues --    4.37046   4.41528   4.41596   4.42658   4.46303
 Alpha virt. eigenvalues --    4.48549   4.51049   4.53987   4.56755   4.59384
 Alpha virt. eigenvalues --    4.62165   4.62407   4.63917   4.69094   4.71977
 Alpha virt. eigenvalues --    4.72786   4.76505   4.79723   4.80547   4.83412
 Alpha virt. eigenvalues --    4.88165   4.93365   4.95177   5.00569   5.03159
 Alpha virt. eigenvalues --    5.05142   5.09341   5.09595   5.12989   5.14237
 Alpha virt. eigenvalues --    5.21260   5.22628   5.32590   5.39267   5.46518
 Alpha virt. eigenvalues --    5.50181   5.55828   5.62030   5.64653   5.71703
 Alpha virt. eigenvalues --    5.72403   5.75136   5.84102   5.85957   5.89603
 Alpha virt. eigenvalues --    5.89957   5.96051   6.02271   6.03692   6.06749
 Alpha virt. eigenvalues --    6.13885   6.19756   6.20278   6.27212   6.32226
 Alpha virt. eigenvalues --    6.39114   6.45140   6.45935   6.54371   6.57781
 Alpha virt. eigenvalues --    6.58369   6.64553   6.67154   6.75989   6.79829
 Alpha virt. eigenvalues --    6.93409   6.94713   7.02404   7.06147   7.09672
 Alpha virt. eigenvalues --    7.24289   7.30649   7.31925   7.36985   7.39551
 Alpha virt. eigenvalues --    7.46334   7.54638   7.56929   7.69421   7.76182
 Alpha virt. eigenvalues --    7.83526   7.92467   8.08080   8.25475   8.31746
 Alpha virt. eigenvalues --    8.47532   8.89337   9.01359   9.14498   9.30065
 Alpha virt. eigenvalues --    9.50457   9.73713   9.77372  10.32723  10.54675
 Alpha virt. eigenvalues --   10.58705  10.75299  11.04588  11.32368  11.35089
 Alpha virt. eigenvalues --   11.80613  13.22015  13.57176  14.91073  39.69233
 Alpha virt. eigenvalues --   53.23133  58.91200
          Condensed to atoms (all electrons):
              1          2          3          4          5          6
     1  C    4.337525   0.443588   0.679227   0.343721  -0.019585  -0.016352
     2  H    0.443588   0.651081  -0.053312  -0.120628   0.008202  -0.002220
     3  O    0.679227  -0.053312   7.817501  -0.087522   0.000954   0.002539
     4  N    0.343721  -0.120628  -0.087522   6.405661   0.363311   0.380303
     5  H   -0.019585   0.008202   0.000954   0.363311   0.470200  -0.032674
     6  H   -0.016352  -0.002220   0.002539   0.380303  -0.032674   0.466420
     7  C    0.002071   0.000381   0.008365  -0.002432   0.001784   0.000137
     8  H    0.000023   0.000009   0.000270  -0.000032   0.000173   0.000002
     9  O   -0.000433  -0.000029  -0.000819  -0.001896  -0.003762   0.000071
    10  N    0.000450  -0.000051  -0.007301  -0.000134  -0.000167   0.000006
    11  H   -0.007725   0.002057   0.043084  -0.001993   0.001231  -0.000048
    12  H    0.000005  -0.000001  -0.000103  -0.000004  -0.000006   0.000001
              7          8          9         10         11         12
     1  C    0.002071   0.000023  -0.000433   0.000450  -0.007725   0.000005
     2  H    0.000381   0.000009  -0.000029  -0.000051   0.002057  -0.000001
     3  O    0.008365   0.000270  -0.000819  -0.007301   0.043084  -0.000103
     4  N   -0.002432  -0.000032  -0.001896  -0.000134  -0.001993  -0.000004
     5  H    0.001784   0.000173  -0.003762  -0.000167   0.001231  -0.000006
     6  H    0.000137   0.000002   0.000071   0.000006  -0.000048   0.000001
     7  C    0.004026   0.000097  -0.001140  -0.000784  -0.000206   0.000111
     8  H    0.000097   0.000599  -0.000261  -0.000304   0.000167   0.000045
     9  O   -0.001140  -0.000261   0.000905   0.000207  -0.000131  -0.000006
    10  N   -0.000784  -0.000304   0.000207   0.002209  -0.002565  -0.000394
    11  H   -0.000206   0.000167  -0.000131  -0.002565   0.008112   0.000198
    12  H    0.000111   0.000045  -0.000006  -0.000394   0.000198   0.000221
 Mulliken atomic charges:
              1
     1  C    0.237486
     2  H    0.070922
     3  O   -0.402881
     4  N   -0.278356
     5  H    0.210338
     6  H    0.201815
     7  C   -0.012410
     8  H   -0.000788
     9  O    0.007294
    10  N    0.008828
    11  H   -0.042183
    12  H   -0.000065
 Sum of Mulliken atomic charges =   0.00000
 Mulliken charges with hydrogens summed into heavy atoms:
              1
     1  C    0.308408
     3  O   -0.402881
     4  N    0.133798
     7  C   -0.013198
     9  O    0.007294
    10  N   -0.033420
 Sum of Mulliken charges with hydrogens summed into heavy atoms =   0.00000
          Condensed to fragments (all electrons):
     1       0.039324
     2      -0.039324
 Electronic spatial extent (au):  <R**2>=            320.1343
 Charge=              0.0000 electrons
 Dipole moment (field-independent basis, Debye):
    X=              1.7165    Y=              4.3694    Z=              0.0000  Tot=              4.6945
 Quadrupole moment (field-independent basis, Debye-Ang):
   XX=            -10.8344   YY=            -18.6405   ZZ=            -18.8342
   XY=              4.4135   XZ=              0.0000   YZ=              0.0000
 Traceless Quadrupole moment (field-independent basis, Debye-Ang):
   XX=              5.2687   YY=             -2.5375   ZZ=             -2.7312
   XY=              4.4135   XZ=              0.0000   YZ=              0.0000
 Octapole moment (field-independent basis, Debye-Ang**2):
  XXX=            -55.2379  YYY=             16.9172  ZZZ=              0.0000  XYY=            -23.8882
  XXY=              9.8855  XXZ=              0.0000  XZZ=            -26.8334  YZZ=              0.2068
  YYZ=              0.0000  XYZ=              0.0000
 Hexadecapole moment (field-independent basis, Debye-Ang**3):
 XXXX=           -198.5192 YYYY=           -122.2593 ZZZZ=            -16.9528 XXXY=             17.8972
 XXXZ=              0.0000 YYYX=             15.6979 YYYZ=              0.0000 ZZZX=              0.0000
 ZZZY=              0.0000 XXYY=            -51.9091 XXZZ=            -47.7926 YYZZ=            -25.7446
 XXYZ=              0.0000 YYXZ=              0.0000 ZZXY=             -2.6684
 N-N= 7.028231894700D+01 E-N=-5.383435192255D+02  KE= 1.685901544293D+02
 No NMR shielding tensors so no spin-rotation constants.
 Leave Link  601 at Mon Sep  9 13:49:42 2019, MaxMem= 4294967296 cpu:       1.4
 (Enter /opt/g09gh/gaussian/g09/l701.exe)
 Compute integral first derivatives.
 ... and contract with generalized density number  2.
 Leave Link  701 at Mon Sep  9 13:49:43 2019, MaxMem= 4294967296 cpu:       1.7
 (Enter /opt/g09gh/gaussian/g09/l702.exe)
 L702 exits ... SP integral derivatives will be done elsewhere.
 Leave Link  702 at Mon Sep  9 13:49:43 2019, MaxMem= 4294967296 cpu:       0.1
 (Enter /opt/g09gh/gaussian/g09/l703.exe)
 Compute integral first derivatives, UseDBF=F ICtDFT=           0.
 Integral derivatives from FoFDir, PRISM(SPDF).
 Calling FoFJK, ICntrl=      2127 FMM=F ISym2X=0 I1Cent= 0 IOpClX= 0 NMat=1 NMatS=1 NMatT=0.
 FoFCou: FMM=F IPFlag=           0 FMFlag=      100000 FMFlg1=         800
         NFxFlg=           0 DoJE=F BraDBF=F KetDBF=F FulRan=T
         Omega=  0.000000  0.000000  1.000000  0.000000  0.000000 ICntrl=    2127 IOpCl=  0
         NMat0=    1 NMatS0=    1 NMatT0=    0 NMatD0=    1 NMtDS0=    0 NMtDT0=    0
         I1Cent=           0 NGrid=           0.
 Symmetry not used in FoFCou.
 Leave Link  703 at Mon Sep  9 13:49:53 2019, MaxMem= 4294967296 cpu:      82.5
 (Enter /opt/g09gh/gaussian/g09/l716.exe)
 Dipole        = 5.51378264D-01 1.56939673D+00 6.23550104D-15
 Cartesian Forces:  Max     0.053218274 RMS     0.015020151
 Leave Link  716 at Mon Sep  9 13:49:53 2019, MaxMem= 4294967296 cpu:       0.3
 (Enter /opt/g09gh/gaussian/g09/l122.exe)
 Counterpoise: doing DCBS calculation for fragment   2 NewBq=T
 Leave Link  122 at Mon Sep  9 13:49:53 2019, MaxMem= 4294967296 cpu:       0.0
 (Enter /opt/g09gh/gaussian/g09/l301.exe)
 Basis read from rwf:  (5D, 7F)
 No pseudopotential information found on rwf file.
 Integral buffers will be    131072 words long.
 Raffenetti 1 integral format.
 Two-electron integral symmetry is turned off.
   264 basis functions,   414 primitive gaussians,   300 cartesian basis functions
    12 alpha electrons       12 beta electrons
       nuclear repulsion energy        70.2823189470 Hartrees.
 IExCor=    0 DFT=F Ex=HF Corr=None ExCW=0 ScaHFX=  1.000000
 ScaDFX=  1.000000  1.000000  1.000000  1.000000 ScalE2=  1.000000  1.000000
 IRadAn=      0 IRanWt=     -1 IRanGd=            0 ICorTp=0
 NAtoms=   12 NActive=   12 NUniq=   12 SFac= 7.50D-01 NAtFMM=   80 NAOKFM=F Big=F
 No density basis found on file   718.
 Leave Link  301 at Mon Sep  9 13:49:53 2019, MaxMem= 4294967296 cpu:       0.6
 (Enter /opt/g09gh/gaussian/g09/l302.exe)
 NPDir=0 NMtPBC=     1 NCelOv=     1 NCel=       1 NClECP=     1 NCelD=      1
         NCelK=      1 NCelE2=     1 NClLst=     1 CellRange=     0.0.
 One-electron integrals computed using PRISM.
 NBasis=   264 RedAO= T  NBF=   264
 NBsUse=   264 1.00D-06 NBFU=   264
 Leave Link  302 at Mon Sep  9 13:49:53 2019, MaxMem= 4294967296 cpu:       1.7
 (Enter /opt/g09gh/gaussian/g09/l303.exe)
 DipDrv:  MaxL=1.
 Leave Link  303 at Mon Sep  9 13:49:54 2019, MaxMem= 4294967296 cpu:       0.3
 (Enter /opt/g09gh/gaussian/g09/l401.exe)
 Harris functional with IExCor=  205 diagonalized for initial guess.
 ExpMin= 1.03D-01 ExpMax= 1.53D+04 ExpMxC= 5.22D+02 IAcc=1 IRadAn=         1 AccDes= 0.00D+00
 HarFok:  IExCor=  205 AccDes= 0.00D+00 IRadAn=         1 IDoV= 1
 ScaDFX=  1.000000  1.000000  1.000000  1.000000
 FoFCou: FMM=F IPFlag=           0 FMFlag=      100000 FMFlg1=           0
         NFxFlg=           0 DoJE=T BraDBF=F KetDBF=T FulRan=T
         Omega=  0.000000  0.000000  1.000000  0.000000  0.000000 ICntrl=     500 IOpCl=  0
         NMat0=    1 NMatS0=    1 NMatT0=    0 NMatD0=    1 NMtDS0=    0 NMtDT0=    0
         I1Cent=           4 NGrid=           0.
 Symmetry not used in FoFCou.
 Harris En= -169.174606575924    
 Leave Link  401 at Mon Sep  9 13:49:54 2019, MaxMem= 4294967296 cpu:       3.0
 (Enter /opt/g09gh/gaussian/g09/l502.exe)
 Closed shell SCF:
 Requested convergence on RMS density matrix=1.00D-08 within  64 cycles.
 Requested convergence on MAX density matrix=1.00D-06.
 Requested convergence on             energy=1.00D-06.
 No special actions if energy rises.
 Using DIIS extrapolation, IDIIS=  1040.
 Two-electron integral symmetry not used.
 Keep R1 ints in memory in canonical form, NReq=1033198901.
 IEnd=      279762 IEndB=      279762 NGot=  4294967296 MDV=  3275498206
 LenX=  3275498206 LenY=  3275407765
 Symmetry not used in FoFDir.
 MinBra= 0 MaxBra= 3 Meth= 1.
 IRaf=       0 NMat=   1 IRICut=       1 DoRegI=T DoRafI=F ISym2E= 0 JSym2E=0.

 Cycle   1  Pass 1  IDiag  1:
 E= -168.836950396500    
 DIIS: error= 2.75D-02 at cycle   1 NSaved=   1.
 NSaved= 1 IEnMin= 1 EnMin= -168.836950396500     IErMin= 1 ErrMin= 2.75D-02
 ErrMax= 2.75D-02 EMaxC= 1.00D-01 BMatC= 3.46D-01 BMatP= 3.46D-01
 IDIUse=3 WtCom= 7.25D-01 WtEn= 2.75D-01
 Coeff-Com:  0.100D+01
 Coeff-En:   0.100D+01
 Coeff:      0.100D+01
 Gap=     0.574 Goal=   None    Shift=    0.000
 GapD=    0.574 DampG=2.000 DampE=0.500 DampFc=1.0000 IDamp=-1.
 RMSDP=1.59D-03 MaxDP=1.12D-01              OVMax= 1.40D-01

 Cycle   2  Pass 1  IDiag  1:
 E= -168.949700843320     Delta-E=       -0.112750446821 Rises=F Damp=F
 DIIS: error= 1.25D-02 at cycle   2 NSaved=   2.
 NSaved= 2 IEnMin= 2 EnMin= -168.949700843320     IErMin= 2 ErrMin= 1.25D-02
 ErrMax= 1.25D-02 EMaxC= 1.00D-01 BMatC= 5.91D-02 BMatP= 3.46D-01
 IDIUse=3 WtCom= 8.75D-01 WtEn= 1.25D-01
 Coeff-Com:  0.232D+00 0.768D+00
 Coeff-En:   0.000D+00 0.100D+01
 Coeff:      0.203D+00 0.797D+00
 Gap=     0.560 Goal=   None    Shift=    0.000
 RMSDP=8.43D-04 MaxDP=6.52D-02 DE=-1.13D-01 OVMax= 6.36D-02

 Cycle   3  Pass 1  IDiag  1:
 E= -168.983393736064     Delta-E=       -0.033692892744 Rises=F Damp=F
 DIIS: error= 5.29D-03 at cycle   3 NSaved=   3.
 NSaved= 3 IEnMin= 3 EnMin= -168.983393736064     IErMin= 3 ErrMin= 5.29D-03
 ErrMax= 5.29D-03 EMaxC= 1.00D-01 BMatC= 8.52D-03 BMatP= 5.91D-02
 IDIUse=3 WtCom= 9.47D-01 WtEn= 5.29D-02
 Coeff-Com: -0.178D-01 0.250D+00 0.768D+00
 Coeff-En:   0.000D+00 0.000D+00 0.100D+01
 Coeff:     -0.168D-01 0.237D+00 0.780D+00
 Gap=     0.532 Goal=   None    Shift=    0.000
 RMSDP=1.75D-04 MaxDP=8.73D-03 DE=-3.37D-02 OVMax= 2.78D-02

 Cycle   4  Pass 1  IDiag  1:
 E= -168.988590494405     Delta-E=       -0.005196758341 Rises=F Damp=F
 DIIS: error= 9.63D-04 at cycle   4 NSaved=   4.
 NSaved= 4 IEnMin= 4 EnMin= -168.988590494405     IErMin= 4 ErrMin= 9.63D-04
 ErrMax= 9.63D-04 EMaxC= 1.00D-01 BMatC= 4.03D-04 BMatP= 8.52D-03
 IDIUse=3 WtCom= 9.90D-01 WtEn= 9.63D-03
 Coeff-Com: -0.131D-01 0.545D-01 0.263D+00 0.695D+00
 Coeff-En:   0.000D+00 0.000D+00 0.000D+00 0.100D+01
 Coeff:     -0.129D-01 0.540D-01 0.261D+00 0.698D+00
 Gap=     0.523 Goal=   None    Shift=    0.000
 RMSDP=4.90D-05 MaxDP=2.04D-03 DE=-5.20D-03 OVMax= 4.84D-03

 Cycle   5  Pass 1  IDiag  1:
 E= -168.988935446732     Delta-E=       -0.000344952327 Rises=F Damp=F
 DIIS: error= 2.62D-04 at cycle   5 NSaved=   5.
 NSaved= 5 IEnMin= 5 EnMin= -168.988935446732     IErMin= 5 ErrMin= 2.62D-04
 ErrMax= 2.62D-04 EMaxC= 1.00D-01 BMatC= 1.85D-05 BMatP= 4.03D-04
 IDIUse=3 WtCom= 9.97D-01 WtEn= 2.62D-03
 Coeff-Com:  0.316D-02-0.247D-01-0.103D+00-0.842D-01 0.121D+01
 Coeff-En:   0.000D+00 0.000D+00 0.000D+00 0.000D+00 0.100D+01
 Coeff:      0.315D-02-0.246D-01-0.103D+00-0.840D-01 0.121D+01
 Gap=     0.523 Goal=   None    Shift=    0.000
 RMSDP=2.71D-05 MaxDP=1.57D-03 DE=-3.45D-04 OVMax= 4.34D-03

 Cycle   6  Pass 1  IDiag  1:
 E= -168.988984051405     Delta-E=       -0.000048604673 Rises=F Damp=F
 DIIS: error= 9.35D-05 at cycle   6 NSaved=   6.
 NSaved= 6 IEnMin= 6 EnMin= -168.988984051405     IErMin= 6 ErrMin= 9.35D-05
 ErrMax= 9.35D-05 EMaxC= 1.00D-01 BMatC= 3.12D-06 BMatP= 1.85D-05
 IDIUse=1 WtCom= 1.00D+00 WtEn= 0.00D+00
 Coeff-Com:  0.170D-02-0.969D-02-0.411D-01-0.952D-01 0.193D+00 0.951D+00
 Coeff:      0.170D-02-0.969D-02-0.411D-01-0.952D-01 0.193D+00 0.951D+00
 Gap=     0.524 Goal=   None    Shift=    0.000
 RMSDP=1.08D-05 MaxDP=6.72D-04 DE=-4.86D-05 OVMax= 1.23D-03

 Cycle   7  Pass 1  IDiag  1:
 E= -168.988990637447     Delta-E=       -0.000006586042 Rises=F Damp=F
 DIIS: error= 3.42D-05 at cycle   7 NSaved=   7.
 NSaved= 7 IEnMin= 7 EnMin= -168.988990637447     IErMin= 7 ErrMin= 3.42D-05
 ErrMax= 3.42D-05 EMaxC= 1.00D-01 BMatC= 4.07D-07 BMatP= 3.12D-06
 IDIUse=1 WtCom= 1.00D+00 WtEn= 0.00D+00
 Coeff-Com: -0.500D-03 0.426D-02 0.197D-01 0.874D-02-0.179D+00-0.694D-01
 Coeff-Com:  0.122D+01
 Coeff:     -0.500D-03 0.426D-02 0.197D-01 0.874D-02-0.179D+00-0.694D-01
 Coeff:      0.122D+01
 Gap=     0.524 Goal=   None    Shift=    0.000
 RMSDP=4.90D-06 MaxDP=2.78D-04 DE=-6.59D-06 OVMax= 7.91D-04

 Cycle   8  Pass 1  IDiag  1:
 E= -168.988991869667     Delta-E=       -0.000001232220 Rises=F Damp=F
 DIIS: error= 1.02D-05 at cycle   8 NSaved=   8.
 NSaved= 8 IEnMin= 8 EnMin= -168.988991869667     IErMin= 8 ErrMin= 1.02D-05
 ErrMax= 1.02D-05 EMaxC= 1.00D-01 BMatC= 3.52D-08 BMatP= 4.07D-07
 IDIUse=1 WtCom= 1.00D+00 WtEn= 0.00D+00
 Coeff-Com: -0.553D-04 0.970D-04-0.157D-03 0.330D-02 0.248D-01-0.623D-01
 Coeff-Com: -0.311D+00 0.135D+01
 Coeff:     -0.553D-04 0.970D-04-0.157D-03 0.330D-02 0.248D-01-0.623D-01
 Coeff:     -0.311D+00 0.135D+01
 Gap=     0.524 Goal=   None    Shift=    0.000
 RMSDP=1.63D-06 MaxDP=8.25D-05 DE=-1.23D-06 OVMax= 2.68D-04

 Cycle   9  Pass 1  IDiag  1:
 E= -168.988991997616     Delta-E=       -0.000000127949 Rises=F Damp=F
 DIIS: error= 2.61D-06 at cycle   9 NSaved=   9.
 NSaved= 9 IEnMin= 9 EnMin= -168.988991997616     IErMin= 9 ErrMin= 2.61D-06
 ErrMax= 2.61D-06 EMaxC= 1.00D-01 BMatC= 3.71D-09 BMatP= 3.52D-08
 IDIUse=1 WtCom= 1.00D+00 WtEn= 0.00D+00
 Coeff-Com:  0.624D-04-0.441D-03-0.156D-02-0.311D-02 0.889D-02 0.305D-01
 Coeff-Com: -0.365D-02-0.466D+00 0.143D+01
 Coeff:      0.624D-04-0.441D-03-0.156D-02-0.311D-02 0.889D-02 0.305D-01
 Coeff:     -0.365D-02-0.466D+00 0.143D+01
 Gap=     0.524 Goal=   None    Shift=    0.000
 RMSDP=4.80D-07 MaxDP=2.30D-05 DE=-1.28D-07 OVMax= 6.84D-05

 Cycle  10  Pass 1  IDiag  1:
 E= -168.988992009467     Delta-E=       -0.000000011851 Rises=F Damp=F
 DIIS: error= 8.28D-07 at cycle  10 NSaved=  10.
 NSaved=10 IEnMin=10 EnMin= -168.988992009467     IErMin=10 ErrMin= 8.28D-07
 ErrMax= 8.28D-07 EMaxC= 1.00D-01 BMatC= 2.62D-10 BMatP= 3.71D-09
 IDIUse=1 WtCom= 1.00D+00 WtEn= 0.00D+00
 Coeff-Com: -0.143D-05 0.310D-04 0.282D-03-0.115D-03-0.411D-02 0.369D-02
 Coeff-Com:  0.347D-01-0.843D-01-0.186D+00 0.124D+01
 Coeff:     -0.143D-05 0.310D-04 0.282D-03-0.115D-03-0.411D-02 0.369D-02
 Coeff:      0.347D-01-0.843D-01-0.186D+00 0.124D+01
 Gap=     0.524 Goal=   None    Shift=    0.000
 RMSDP=1.24D-07 MaxDP=5.95D-06 DE=-1.19D-08 OVMax= 1.39D-05

 Cycle  11  Pass 1  IDiag  1:
 E= -168.988992010136     Delta-E=       -0.000000000670 Rises=F Damp=F
 DIIS: error= 1.22D-07 at cycle  11 NSaved=  11.
 NSaved=11 IEnMin=11 EnMin= -168.988992010136     IErMin=11 ErrMin= 1.22D-07
 ErrMax= 1.22D-07 EMaxC= 1.00D-01 BMatC= 5.94D-12 BMatP= 2.62D-10
 IDIUse=1 WtCom= 1.00D+00 WtEn= 0.00D+00
 Coeff-Com: -0.245D-05 0.155D-04 0.293D-04 0.156D-03 0.567D-04-0.114D-02
 Coeff-Com: -0.591D-02 0.326D-01-0.245D-01-0.218D+00 0.122D+01
 Coeff:     -0.245D-05 0.155D-04 0.293D-04 0.156D-03 0.567D-04-0.114D-02
 Coeff:     -0.591D-02 0.326D-01-0.245D-01-0.218D+00 0.122D+01
 Gap=     0.524 Goal=   None    Shift=    0.000
 RMSDP=1.48D-08 MaxDP=5.69D-07 DE=-6.70D-10 OVMax= 2.03D-06

 Cycle  12  Pass 1  IDiag  1:
 E= -168.988992010150     Delta-E=       -0.000000000014 Rises=F Damp=F
 DIIS: error= 1.76D-08 at cycle  12 NSaved=  12.
 NSaved=12 IEnMin=12 EnMin= -168.988992010150     IErMin=12 ErrMin= 1.76D-08
 ErrMax= 1.76D-08 EMaxC= 1.00D-01 BMatC= 1.78D-13 BMatP= 5.94D-12
 IDIUse=1 WtCom= 1.00D+00 WtEn= 0.00D+00
 Coeff-Com:  0.342D-06-0.298D-05-0.998D-05-0.276D-04 0.705D-04 0.226D-03
 Coeff-Com:  0.113D-03-0.424D-02 0.117D-01-0.278D-02-0.199D+00 0.119D+01
 Coeff:      0.342D-06-0.298D-05-0.998D-05-0.276D-04 0.705D-04 0.226D-03
 Coeff:      0.113D-03-0.424D-02 0.117D-01-0.278D-02-0.199D+00 0.119D+01
 Gap=     0.524 Goal=   None    Shift=    0.000
 RMSDP=2.85D-09 MaxDP=1.23D-07 DE=-1.41D-11 OVMax= 3.15D-07

 SCF Done:  E(RHF) =  -168.988992010     A.U. after   12 cycles
             Convg  =    0.2848D-08             -V/T =  2.0024
 KE= 1.685901544293D+02 PE=-5.383435197267D+02 EE= 1.304820543403D+02
 Leave Link  502 at Mon Sep  9 13:50:32 2019, MaxMem= 4294967296 cpu:     307.6
 (Enter /opt/g09gh/gaussian/g09/l801.exe)
 ExpMin= 1.03D-01 ExpMax= 1.53D+04 ExpMxC= 5.22D+02 IAcc=1 IRadAn=         1 AccDes= 0.00D+00
 HarFok:  IExCor=  205 AccDes= 0.00D+00 IRadAn=         1 IDoV=-2
 ScaDFX=  1.000000  1.000000  1.000000  1.000000
 Largest valence mixing into a core orbital is  2.16D-04
 Largest core mixing into a valence orbital is  2.90D-05
 Range of M.O.s used for correlation:     4   264
 NBasis=   264 NAE=    12 NBE=    12 NFC=     3 NFV=     0
 NROrb=    261 NOA=     9 NOB=     9 NVA=   252 NVB=   252
 Leave Link  801 at Mon Sep  9 13:50:33 2019, MaxMem= 4294967296 cpu:       0.3
 (Enter /opt/g09gh/gaussian/g09/l906.exe)
 Frozen-core derivative calculation, NFC=   3 NFV=   0.
 FulOut=F Deriv=T AODrv=T NAtomX=    12
   MMem=         326  MDisk=           9 MDiskD=           9
  W3Min=      950400 MinDsk=     1898750 NBas6D=         300
 NBas2D=       45780    NTT=       45150    LW2=     3500000
    MDV=  4294142950 MDiskM=       71535 NBas2p=       43759
 Fully direct method using O(ONN) memory.
 IMap=   1   2   3   4   5   6   7   8   9  10  11  12
 JobTyp=1 Pass  1:  I=   4 to  12 NPSUse=  8 ParTrn=T ParDer=T DoDerP=T.
 Spin components of T(2) and E(2):
     alpha-alpha T2 =       0.2201653488D-01 E2=     -0.7629537895D-01
     alpha-beta  T2 =       0.1238999324D+00 E2=     -0.4571731946D+00
[...]
 LinEq1:  Iter=  8 NonCon=     1 RMS=1.77D-07 Max=1.80D-06
 LinEq1:  Iter=  9 NonCon=     1 RMS=6.49D-08 Max=7.00D-07
 LinEq1:  Iter= 10 NonCon=     1 RMS=1.43D-08 Max=1.12D-07
 LinEq1:  Iter= 11 NonCon=     1 RMS=1.89D-09 Max=1.76D-08
 LinEq1:  Iter= 12 NonCon=     1 RMS=2.51D-10 Max=1.88D-09
 LinEq1:  Iter= 13 NonCon=     0 RMS=3.01D-11 Max=2.16D-10
 Linear equations converged to 1.000D-10 1.000D-09 after    13 iterations.
 End of Minotr Frequency-dependent properties file   721 does not exist.
 End of Minotr Frequency-dependent properties file   722 does not exist.
 Leave Link 1002 at Mon Sep  9 15:50:48 2019, MaxMem= 4294967296 cpu:      17.9
 (Enter /opt/g09gh/gaussian/g09/l701.exe)
 Compute integral first derivatives.
 ... and contract with generalized density number  2.
 Leave Link  701 at Mon Sep  9 15:50:48 2019, MaxMem= 4294967296 cpu:       1.3
 (Enter /opt/g09gh/gaussian/g09/l702.exe)
 L702 exits ... SP integral derivatives will be done elsewhere.
 Leave Link  702 at Mon Sep  9 15:50:48 2019, MaxMem= 4294967296 cpu:       0.2
 (Enter /opt/g09gh/gaussian/g09/l703.exe)
 Compute integral first derivatives, UseDBF=F ICtDFT=           0.
 Integral derivatives from FoFDir, PRISM(SPDF).
 Calling FoFJK, ICntrl=      2127 FMM=F ISym2X=0 I1Cent= 0 IOpClX= 0 NMat=1 NMatS=1 NMatT=0.
 FoFCou: FMM=F IPFlag=           0 FMFlag=      100000 FMFlg1=         800
         NFxFlg=           0 DoJE=F BraDBF=F KetDBF=F FulRan=T
         Omega=  0.000000  0.000000  1.000000  0.000000  0.000000 ICntrl=    2127 IOpCl=  0
         NMat0=    1 NMatS0=    1 NMatT0=    0 NMatD0=    1 NMtDS0=    0 NMtDT0=    0
         I1Cent=           0 NGrid=           0.
 Symmetry not used in FoFCou.
 Leave Link  703 at Mon Sep  9 15:50:50 2019, MaxMem= 4294967296 cpu:      12.3
 (Enter /opt/g09gh/gaussian/g09/l716.exe)
 Dipole        =-4.53156610D-01-1.48933912D+00-8.49380007D-07
 Cartesian Forces:  Max     0.028656483 RMS     0.006920234
 Leave Link  716 at Mon Sep  9 15:50:50 2019, MaxMem= 4294967296 cpu:       0.2
 (Enter /opt/g09gh/gaussian/g09/l122.exe)
 Restoring MOs from calculation   1 to rwf.
 Counterpoise: corrected energy =    -339.231847748755
 Counterpoise: BSSE energy =       0.003787048777
 Leave Link  122 at Mon Sep  9 15:50:50 2019, MaxMem= 4294967296 cpu:       0.0
 (Enter /opt/g09gh/gaussian/g09/l716.exe)
 Dipole        =-1.38521550D-09 1.55808069D-08-2.00900354D-06
 -------------------------------------------------------------------
 Center     Atomic                   Forces (Hartrees/Bohr)
 Number     Number              X              Y              Z
 -------------------------------------------------------------------
      1        6          -0.000002252   -0.000000640   -0.000001821
      2        1           0.000000265    0.000000143    0.000000616
      3        8           0.000000624   -0.000000217    0.000000684
      4        7          -0.000001798    0.000003631    0.000000387
      5        1           0.000001026   -0.000001745    0.000000020
      6        1           0.000001276   -0.000000999    0.000000115
      7        6           0.000002251    0.000000650   -0.000000410
      8        1          -0.000000264   -0.000000144    0.000000137
      9        8          -0.000000624    0.000000210    0.000000154
     10        7           0.000001798   -0.000003633    0.000000082
     11        1          -0.000001025    0.000001745    0.000000009
     12        1          -0.000001277    0.000000997    0.000000026
 -------------------------------------------------------------------
 Cartesian Forces:  Max     0.000003633 RMS     0.000001321
 Leave Link  716 at Mon Sep  9 15:50:50 2019, MaxMem= 4294967296 cpu:       0.2
 (Enter /opt/g09gh/gaussian/g09/l103.exe)

 GradGradGradGradGradGradGradGradGradGradGradGradGradGradGradGradGradGrad
 Berny optimization.
 Using GEDIIS/GDIIS optimizer.
 Internal  Forces:  Max     0.000002101 RMS     0.000000816
 Search for a local minimum.
 Step number  13 out of a maximum of   56
 All quantities printed in internal units (Hartrees-Bohrs-Radians)
 RMS Force = .81560D-06 SwitMx=.10000D-02 MixMth= 2
 Mixed Optimization -- En-DIIS/RFO-DIIS
 Swaping is turned off.
 Update second derivatives using D2CorX and points    4    5    6    7    8
                                                      9   10   11   12   13
 DE= -1.29D-08 DEPred=-3.17D-09 R= 4.07D+00
 Trust test= 4.07D+00 RLast= 2.85D-04 DXMaxT set to 9.53D-01
     Eigenvalues ---    0.00482   0.00512   0.01167   0.01605   0.01925
     Eigenvalues ---    0.01956   0.02130   0.02664   0.02995   0.03030
     Eigenvalues ---    0.03099   0.07848   0.11685   0.12451   0.16000
     Eigenvalues ---    0.16000   0.16073   0.19114   0.21417   0.26827
     Eigenvalues ---    0.31434   0.31969   0.41380   0.45548   0.45783
     Eigenvalues ---    0.48575   0.55525   0.58263   0.85201   0.88507
     Eigenvalues --- 1000.000001000.000001000.000001000.000001000.00000
     Eigenvalues --- 1000.000001000.000001000.000001000.000001000.00000
     Eigenvalues --- 1000.000001000.000001000.000001000.000001000.00000
     Eigenvalues --- 1000.00000
 En-DIIS/RFO-DIIS IScMMF=        0 using points:    13   12   11   10    9
 RFO step:  Lambda= 0.00000000D+00.
 DIIS coeffs:      1.13634     -0.13410     -0.00470      0.00708     -0.00463
 Iteration  1 RMS(Cart)=  0.00001109 RMS(Int)=  0.00000000
 Iteration  2 RMS(Cart)=  0.00000000 RMS(Int)=  0.00000000
 Variable       Old X    -DE/DX   Delta X   Delta X   Delta X     New X
                                  (DIIS)     (GDIIS)  (Total)
    R1        2.07594   0.00000   0.00000   0.00000   0.00000   2.07594
    R2        2.31945   0.00000   0.00000   0.00000   0.00000   2.31945
    R3        2.53506   0.00000   0.00000   0.00000   0.00000   2.53506
    R4        3.54937   0.00000  -0.00002   0.00000  -0.00003   3.54934
    R5        1.92851   0.00000   0.00000   0.00000   0.00000   1.92851
    R6        1.89383   0.00000   0.00000   0.00000   0.00000   1.89383
    R7        3.54937   0.00000  -0.00002   0.00000  -0.00003   3.54934
    R8        2.07594   0.00000   0.00000   0.00000   0.00000   2.07594
    R9        2.31945   0.00000   0.00000   0.00000   0.00000   2.31945
   R10        2.53506   0.00000   0.00000   0.00000   0.00000   2.53506
   R11        1.92851   0.00000   0.00000   0.00000   0.00000   1.92851
   R12        1.89383   0.00000   0.00000   0.00000   0.00000   1.89383
    A1        2.11611   0.00000   0.00000   0.00000   0.00000   2.11611
    A2        1.97832   0.00000   0.00000  -0.00001   0.00000   1.97831
    A3        2.18876   0.00000   0.00000   0.00001   0.00000   2.18876
    A4        2.10140   0.00000   0.00001   0.00000   0.00001   2.10141
    A5        2.10377   0.00000   0.00000  -0.00001  -0.00001   2.10376
    A6        2.08379   0.00000  -0.00001   0.00000  -0.00001   2.08378
    A7        2.09562   0.00000   0.00001   0.00001   0.00002   2.09564
    A8        3.03085   0.00000   0.00000   0.00000   0.00000   3.03085
    A9        2.11611   0.00000   0.00000   0.00000   0.00000   2.11611
   A10        1.97832   0.00000   0.00000  -0.00001   0.00000   1.97831
   A11        2.18876   0.00000   0.00000   0.00001   0.00000   2.18876
   A12        2.10140   0.00000   0.00001   0.00000   0.00001   2.10141
   A13        2.10377   0.00000   0.00000  -0.00001  -0.00001   2.10376
   A14        2.08379   0.00000  -0.00001   0.00000  -0.00001   2.08378
   A15        2.09562   0.00000   0.00001   0.00001   0.00002   2.09564
   A16        3.03085   0.00000   0.00000   0.00000   0.00000   3.03085
    D1       -3.14159   0.00000   0.00000  -0.00002  -0.00002   3.14158
    D2       -0.00001   0.00000   0.00000   0.00002   0.00002   0.00001
    D3        3.14159   0.00000   0.00000   0.00002   0.00001  -3.14158
    D4       -0.00001   0.00000   0.00000   0.00001   0.00001   0.00001
    D5        0.00001   0.00000   0.00000  -0.00002  -0.00001  -0.00001
    D6       -3.14158   0.00000   0.00000  -0.00002  -0.00002   3.14158
    D7        0.00000   0.00000   0.00000  -0.00001   0.00000   0.00000
    D8        0.00000   0.00000   0.00000   0.00000   0.00000   0.00000
    D9        3.14159   0.00000   0.00000   0.00000   0.00000  -3.14159
   D10        0.00000   0.00000   0.00000   0.00001   0.00001   0.00000
   D11       -3.14159   0.00000   0.00000   0.00000   0.00000   3.14159
   D12        0.00000   0.00000   0.00000   0.00000   0.00000   0.00000
   D13        3.14159   0.00000   0.00000   0.00000   0.00000  -3.14159
   D14        0.00000   0.00000   0.00000   0.00000   0.00000   0.00000
   D15        0.00000   0.00000   0.00000   0.00000   0.00000   0.00000
   D16       -3.14159   0.00000   0.00000   0.00000   0.00000   3.14159
   D17        0.00000   0.00000   0.00000   0.00000   0.00000   0.00000
   D18       -3.14159   0.00000   0.00000   0.00000   0.00000   3.14159
         Item               Value     Threshold  Converged?
 Maximum Force            0.000002     0.000015     YES
 RMS     Force            0.000001     0.000010     YES
 Maximum Displacement     0.000023     0.000060     YES
 RMS     Displacement     0.000011     0.000040     YES
 Predicted change in Energy=-9.935062D-11
 Optimization completed.
    -- Stationary point found.
                           ----------------------------
                           !   Optimized Parameters   !
                           ! (Angstroms and Degrees)  !
 --------------------------                            --------------------------
 ! Name  Definition              Value          Derivative Info.                !
 --------------------------------------------------------------------------------
 ! R1    R(1,2)                  1.0985         -DE/DX =    0.0                 !
 ! R2    R(1,3)                  1.2274         -DE/DX =    0.0                 !
 ! R3    R(1,4)                  1.3415         -DE/DX =    0.0                 !
 ! R4    R(3,11)                 1.8782         -DE/DX =    0.0                 !
 ! R5    R(4,5)                  1.0205         -DE/DX =    0.0                 !
 ! R6    R(4,6)                  1.0022         -DE/DX =    0.0                 !
 ! R7    R(5,9)                  1.8782         -DE/DX =    0.0                 !
 ! R8    R(7,8)                  1.0985         -DE/DX =    0.0                 !
 ! R9    R(7,9)                  1.2274         -DE/DX =    0.0                 !
 ! R10   R(7,10)                 1.3415         -DE/DX =    0.0                 !
 ! R11   R(10,11)                1.0205         -DE/DX =    0.0                 !
 ! R12   R(10,12)                1.0022         -DE/DX =    0.0                 !
 ! A1    A(2,1,3)              121.2442         -DE/DX =    0.0                 !
 ! A2    A(2,1,4)              113.3492         -DE/DX =    0.0                 !
 ! A3    A(3,1,4)              125.4066         -DE/DX =    0.0                 !
 ! A4    A(1,3,11)             120.4013         -DE/DX =    0.0                 !
 ! A5    A(1,4,5)              120.5371         -DE/DX =    0.0                 !
 ! A6    A(1,4,6)              119.3925         -DE/DX =    0.0                 !
 ! A7    A(5,4,6)              120.0704         -DE/DX =    0.0                 !
 ! A8    A(4,5,9)              173.655          -DE/DX =    0.0                 !
 ! A9    A(8,7,9)              121.2442         -DE/DX =    0.0                 !
 ! A10   A(8,7,10)             113.3492         -DE/DX =    0.0                 !
 ! A11   A(9,7,10)             125.4066         -DE/DX =    0.0                 !
 ! A12   A(5,9,7)              120.4013         -DE/DX =    0.0                 !
 ! A13   A(7,10,11)            120.5371         -DE/DX =    0.0                 !
 ! A14   A(7,10,12)            119.3925         -DE/DX =    0.0                 !
 ! A15   A(11,10,12)           120.0704         -DE/DX =    0.0                 !
 ! A16   A(3,11,10)            173.655          -DE/DX =    0.0                 !
 ! D1    D(2,1,3,11)           180.0004         -DE/DX =    0.0                 !
 ! D2    D(4,1,3,11)            -0.0004         -DE/DX =    0.0                 !
 ! D3    D(2,1,4,5)           -180.0004         -DE/DX =    0.0                 !
 ! D4    D(2,1,4,6)             -0.0003         -DE/DX =    0.0                 !
 ! D5    D(3,1,4,5)              0.0004         -DE/DX =    0.0                 !
 ! D6    D(3,1,4,6)            180.0005         -DE/DX =    0.0                 !
 ! D7    D(1,3,11,10)            0.0001         -DE/DX =    0.0                 !
 ! D8    D(1,4,5,9)              0.0            -DE/DX =    0.0                 !
 ! D9    D(6,4,5,9)           -180.0001         -DE/DX =    0.0                 !
 ! D10   D(4,5,9,7)             -0.0002         -DE/DX =    0.0                 !
 ! D11   D(8,7,9,5)            180.0001         -DE/DX =    0.0                 !
 ! D12   D(10,7,9,5)            -0.0001         -DE/DX =    0.0                 !
 ! D13   D(8,7,10,11)         -180.0001         -DE/DX =    0.0                 !
 ! D14   D(8,7,10,12)           -0.0001         -DE/DX =    0.0                 !
 ! D15   D(9,7,10,11)            0.0001         -DE/DX =    0.0                 !
 ! D16   D(9,7,10,12)          180.0001         -DE/DX =    0.0                 !
 ! D17   D(7,10,11,3)            0.0            -DE/DX =    0.0                 !
 ! D18   D(12,10,11,3)         180.0            -DE/DX =    0.0                 !
 --------------------------------------------------------------------------------
 GradGradGradGradGradGradGradGradGradGradGradGradGradGradGradGradGradGrad

 Largest change from initial coordinates is atom    1       0.067 Angstoms.
 Leave Link  103 at Mon Sep  9 15:50:50 2019, MaxMem= 4294967296 cpu:       0.1
 (Enter /opt/g09gh/gaussian/g09/l202.exe)
                          Input orientation:                          
 ---------------------------------------------------------------------
 Center     Atomic      Atomic             Coordinates (Angstroms)
 Number     Number       Type             X           Y           Z
 ---------------------------------------------------------------------
      1          6           0        2.008312   -0.337292    0.000004
      2          1           0        3.103034   -0.428820   -0.000003
      3          8           0        1.286457   -1.329981    0.000000
      4          7           0        1.581097    0.934363    0.000001
      5          1           0        0.582755    1.145970    0.000001
      6          1           0        2.252168    1.678679   -0.000003
      7          6           0       -2.008312    0.337292    0.000001
      8          1           0       -3.103034    0.428820   -0.000001
      9          8           0       -1.286457    1.329981    0.000000
     10          7           0       -1.581097   -0.934363    0.000000
     11          1           0       -0.582755   -1.145970    0.000000
     12          1           0       -2.252168   -1.678679   -0.000001
 ---------------------------------------------------------------------
                    Distance matrix (angstroms):
                    1          2          3          4          5
     1  C    0.000000
     2  H    1.098542   0.000000
     3  O    1.227398   2.027817   0.000000
     4  N    1.341498   2.043174   2.283433   0.000000
     5  H    2.057250   2.971830   2.574011   1.020522   0.000000
     6  H    2.030666   2.272779   3.159847   1.002169   1.752347
     7  C    4.072877   5.168441   3.692601   3.638729   2.714330
     8  H    5.168441   6.265048   4.728744   4.711333   3.754910
     9  O    3.692601   4.728744   3.700715   2.894716   1.878248
    10  N    3.638729   4.711333   2.894716   3.673092   3.001673
    11  H    2.714330   3.754910   1.878248   3.001673   2.571265
    12  H    4.466655   5.499122   3.555764   4.639171   4.001928
                    6          7          8          9         10
     6  H    0.000000
     7  C    4.466655   0.000000
     8  H    5.499122   1.098542   0.000000
     9  O    3.555764   1.227398   2.027817   0.000000
    10  N    4.639171   1.341498   2.043174   2.283433   0.000000
    11  H    4.001928   2.057250   2.971830   2.574011   1.020522
    12  H    5.617908   2.030666   2.272779   3.159847   1.002169
                   11         12
    11  H    0.000000
    12  H    1.752347   0.000000
 Symmetry turned off by external request.
 Stoichiometry    C2H6N2O2
 Framework group  C1[X(C2H6N2O2)]
 Deg. of freedom    30
 Full point group                 C1      NOp   1
 Rotational constants (GHZ):      5.6731857      1.9939841      1.4754130
 Leave Link  202 at Mon Sep  9 15:50:50 2019, MaxMem= 4294967296 cpu:       0.0
 (Enter /opt/g09gh/gaussian/g09/l601.exe)
 Copying SCF densities to generalized density rwf, IOpCl= 0 IROHF=0.

 **********************************************************************

            Population analysis using the SCF density.

 **********************************************************************

 Electronic spatial extent (au):  <R**2>=            751.8249
 Charge=              0.0000 electrons
 Dipole moment (field-independent basis, Debye):
    X=              0.0000    Y=              0.0000    Z=              0.0000  Tot=              0.0000
 Quadrupole moment (field-independent basis, Debye-Ang):
   XX=            -20.0797   YY=            -38.8467   ZZ=            -37.3975
   XY=             10.4717   XZ=              0.0000   YZ=              0.0000
 Traceless Quadrupole moment (field-independent basis, Debye-Ang):
   XX=             12.0283   YY=             -6.7387   ZZ=             -5.2895
   XY=             10.4717   XZ=              0.0000   YZ=              0.0000
 Octapole moment (field-independent basis, Debye-Ang**2):
  XXX=              0.0000  YYY=              0.0000  ZZZ=             -0.0001  XYY=              0.0000
  XXY=              0.0000  XXZ=             -0.0001  XZZ=              0.0000  YZZ=              0.0000
  YYZ=             -0.0001  XYZ=              0.0000
 Hexadecapole moment (field-independent basis, Debye-Ang**3):
 XXXX=           -502.0824 YYYY=           -241.5145 ZZZZ=            -33.3880 XXXY=             50.3915
 XXXZ=             -0.0002 YYYX=             68.9290 YYYZ=              0.0000 ZZZX=             -0.0001
 ZZZY=              0.0000 XXYY=           -136.0090 XXZZ=           -120.1129 YYZZ=            -49.1640
 XXYZ=              0.0000 YYXZ=             -0.0001 ZZXY=              3.4943
 No NMR shielding tensors so no spin-rotation constants.
 Leave Link  601 at Mon Sep  9 15:50:50 2019, MaxMem= 4294967296 cpu:       1.4
 (Enter /opt/g09gh/gaussian/g09/l9999.exe)

 Test job not archived.
 1\1\GINC-NODE37\FOpt\RMP2-FC\CC-pVTZ\C2H6N2O2\XY3866\09-Sep-2019\0\\#p
  MP2/cc-pvtz counterpoise=2 IOP(5/13=1) scf=tight Symmetry=None MaxDis
 k=100GB Opt=tight\\Opt=tight\\0,1\C,2.0083115589,-0.3372915927,0.00000
 43863\H,3.1030342725,-0.4288196073,-0.0000025576\O,1.2864574585,-1.329
 9812941,0.000000008\N,1.5810970206,0.9343626858,0.0000010815\H,0.58275
 47776,1.1459700939,0.0000005978\H,2.2521676924,1.6786793484,-0.0000025
 924\C,-2.0083115589,0.3372915927,0.0000009678\H,-3.1030342725,0.428819
 6074,-0.0000006849\O,-1.2864574585,1.3299812941,0.0000003847\N,-1.5810
 970206,-0.9343626858,-0.0000001057\H,-0.5827547776,-1.1459700939,-0.00
 00001833\H,-2.2521676924,-1.6786793485,-0.0000013022\\Version=EM64L-G0
 9RevA.02\HF=-168.9995387\MP2=-169.6046814\RMSD=5.504e-09\RMSF=1.321e-0
 6\Dipole=0.,0.,-0.0000005\Quadrupole=8.9427295,-5.0100914,-3.9326381,7
 .7854271,-0.0000004,-0.0000078\PG=C01 [X(C2H6N2O2)]\\@


 ERWIN WITH HIS PSI CAN DO
 CALCULATIONS QUITE A FEW.
 BUT ONE THING HAS NOT BEEN SEEN
 JUST WHAT DOES PSI REALLY MEAN.
 -- WALTER HUCKEL, TRANS. BY FELIX BLOCH
 Job cpu time:  0 days 17 hours  7 minutes 56.4 seconds.
 File lengths (MBytes):  RWF=     47 Int=      0 D2E=      0 Chk=     13 Scr=      1
 Normal termination of Gaussian 09 at Mon Sep  9 15:50:50 2019.
