 Entering Gaussian System, Link 0=g09
 Input=formicacid_formamide_dimer.com
 Output=formicacid_formamide_dimer.out
 Initial command:
 /opt/g09gh/gaussian/g09/l1.exe /scratch/xy3866/Gau-1003.inp -scrdir=/scratch/xy3866/
 Entering Link 1 = /opt/g09gh/gaussian/g09/l1.exe PID=      1004.
  
 Copyright (c) 1988,1990,1992,1993,1995,1998,2003,2009, Gaussian, Inc.
                  All Rights Reserved.
  
 This is part of the Gaussian(R) 09 program.  It is based on
 the Gaussian(R) 03 system (copyright 2003, Gaussian, Inc.),
 the Gaussian(R) 98 system (copyright 1998, Gaussian, Inc.),
 the Gaussian(R) 94 system (copyright 1995, Gaussian, Inc.),
 the Gaussian 92(TM) system (copyright 1992, Gaussian, Inc.),
 the Gaussian 90(TM) system (copyright 1990, Gaussian, Inc.),
 the Gaussian 88(TM) system (copyright 1988, Gaussian, Inc.),
 the Gaussian 86(TM) system (copyright 1986, Carnegie Mellon
 University), and the Gaussian 82(TM) system (copyright 1983,
 Carnegie Mellon University). Gaussian is a federally registered
 trademark of Gaussian, Inc.
  
 This software contains proprietary and confidential information,
 including trade secrets, belonging to Gaussian, Inc.
  
 This software is provided under written license and may be
 used, copied, transmitted, or stored only in accord with that
 written license.
  
 The following legend is applicable only to US Government
 contracts under FAR:
  
                    RESTRICTED RIGHTS LEGEND
  
 Use, reproduction and disclosure by the US Government is
 subject to restrictions as set forth in subparagraphs (a)
 and (c) of the Commercial Computer Software - Restricted
 Rights clause in FAR 52.227-19.
  
 Gaussian, Inc.
 340 Quinnipiac St., Bldg. 40, Wallingford CT 06492
  
  
 ---------------------------------------------------------------
 Warning -- This program may not be used in any manner that
 competes with the business of Gaussian, Inc. or will provide
 assistance to any competitor of Gaussian, Inc.  The licensee
 of this program is prohibited from giving any competitor of
 Gaussian, Inc. access to this program.  By using this program,
 the user acknowledges that Gaussian, Inc. is engaged in the
 business of creating and licensing software in the field of
 computational chemistry and represents and warrants to the
 licensee that it is not a competitor of Gaussian, Inc. and that
 it will not use this program in any manner prohibited above.
 ---------------------------------------------------------------
  

 Cite this work as:
 Gaussian 09, Revision A.02,
 M. J. Frisch, G. W. Trucks, H. B. Schlegel, G. E. Scuseria, 
 M. A. Robb, J. R. Cheeseman, G. Scalmani, V. Barone, B. Mennucci, 
 G. A. Petersson, H. Nakatsuji, M. Caricato, X. Li, H. P. Hratchian, 
 A. F. Izmaylov, J. Bloino, G. Zheng, J. L. Sonnenberg, M. Hada, 
 M. Ehara, K. Toyota, R. Fukuda, J. Hasegawa, M. Ishida, T. Nakajima, 
 Y. Honda, O. Kitao, H. Nakai, T. Vreven, J. A. Montgomery, Jr., 
 J. E. Peralta, F. Ogliaro, M. Bearpark, J. J. Heyd, E. Brothers, 
 K. N. Kudin, V. N. Staroverov, R. Kobayashi, J. Normand, 
 K. Raghavachari, A. Rendell, J. C. Burant, S. S. Iyengar, J. Tomasi, 
 M. Cossi, N. Rega, J. M. Millam, M. Klene, J. E. Knox, J. B. Cross, 
 V. Bakken, C. Adamo, J. Jaramillo, R. Gomperts, R. E. Stratmann, 
 O. Yazyev, A. J. Austin, R. Cammi, C. Pomelli, J. W. Ochterski, 
 R. L. Martin, K. Morokuma, V. G. Zakrzewski, G. A. Voth, 
 P. Salvador, J. J. Dannenberg, S. Dapprich, A. D. Daniels, 
 O. Farkas, J. B. Foresman, J. V. Ortiz, J. Cioslowski, 
 and D. J. Fox, Gaussian, Inc., Wallingford CT, 2009.
 
 ******************************************
 Gaussian 09:  EM64L-G09RevA.02 11-Jun-2009
                 6-Sep-2019 
 ******************************************
 %NoSave
 %chk=formicacid_formamide_dimer.chk
 %nproc=8
 Will use up to    8 processors via shared memory.
 %Mem=32GB
 ----------------------------------------------------------------------
 #p MP2/cc-pvtz counterpoise=2 IOP(5/13=1) scf=tight Symmetry=None MaxD
 isk=100GB Opt=tight
 ----------------------------------------------------------------------
 1/7=10,18=20,19=15,38=1,62=2/1,3;
 2/9=110,12=2,15=1,17=6,18=5,40=1/2;
 1/7=10,18=20,19=15,38=1,53=5172,62=2,63=100/22;
 3/5=16,6=1,11=9,16=1,25=1,30=1,71=1/1,2,3;
 4//1;
 5/5=2,13=1,32=2,38=5/2;
 8/6=4,10=1/1;
 9/15=2,16=-3/6;
 10/5=1,31=1/2;
 6/7=2,8=2,9=2,10=2/1;
 7/7=1,12=2,30=1,33=-1/1,2,3,16;
 1/7=10,18=20,19=15,53=4052,62=2,63=101/22;
 3/5=7,6=11,11=9,16=1,25=1,30=1,71=1,82=7/1,2,3;
 4//1;
 5/5=2,13=1,32=2,38=5/2;
 8/6=4,10=1/1;
 9/15=2,16=-3/6;
 10/5=1,31=1/2;
 6/7=2,8=2,9=2,10=2/1;
 7/7=1,12=2,30=1,33=-1/1,2,3,16;
 1/7=10,18=20,19=15,53=3042,62=2,63=102/22;
 3/5=7,6=11,11=9,16=1,25=1,30=1,71=1,82=7/1,2,3;
 4//1;
 5/5=2,13=1,32=2,38=5/2;
 8/6=4,10=1/1;
 9/15=2,16=-3/6;
 10/5=1,31=1/2;
 6/7=2,8=2,9=2,10=2/1;
 7/7=1,12=2,30=1,33=-1/1,2,3,16;
 1/7=10,18=20,19=15,53=2032,62=2,63=103/22;
 3/5=7,6=11,11=9,16=1,25=1,30=1,71=1,82=7/1,2,3;
 4//1;
 5/5=2,13=1,32=2,38=5/2;
 8/6=4,10=1/1;
 9/15=2,16=-3/6;
 10/5=1,31=1/2;
 6/7=2,8=2,9=2,10=2/1;
 7/7=1,12=2,30=1,33=-1/1,2,3,16;
 1/7=10,18=20,19=15,53=1022,62=2,63=104/22;
 3/5=7,6=11,11=9,16=1,25=1,30=1,71=1,82=7/1,2,3;
 4//1;
 5/5=2,13=1,32=2,38=5/2;
 8/6=4,10=1/1;
 9/15=2,16=-3/6;
 10/5=1,31=1/2;
 6/7=2,8=2,9=2,10=2/1;
 7/7=1,12=2,30=1,33=-1/1,2,3,16;
 1/7=10,18=20,19=15,53=5015,62=2,63=105/22;
 7/9=1,44=-1/16;
 1/7=10,18=20,19=15,62=2,63=100/3(2);
 2/9=110,15=1/2;
 99//99;
 2/9=110,15=1/2;
 1/7=10,18=20,19=15,53=5173,62=2,63=100/22;
 3/5=7,6=11,11=9,16=1,25=1,30=1,71=1,82=7/1,2,3;
 4/5=5,16=3/1;
 5/5=2,13=1,32=2,38=5/2;
 8/6=4,10=1/1;
 9/15=2,16=-3/6;
 10/5=1,31=1/2;
 7/7=1,12=2,30=1,33=-1/1,2,3,16;
 1/7=10,18=20,19=15,53=4053,62=2,63=101/22;
 3/5=7,6=11,11=9,16=1,25=1,30=1,71=1,82=7/1,2,3;
 4/5=5,16=3/1;
 5/5=2,13=1,32=2,38=5/2;
 8/6=4,10=1/1;
 9/15=2,16=-3/6;
 10/5=1,31=1/2;
 7/7=1,12=2,30=1,33=-1/1,2,3,16;
 1/7=10,18=20,19=15,53=3043,62=2,63=102/22;
 3/5=7,6=11,11=9,16=1,25=1,30=1,71=1,82=7/1,2,3;
 4/5=5,16=3/1;
 5/5=2,13=1,32=2,38=5/2;
 8/6=4,10=1/1;
 9/15=2,16=-3/6;
 10/5=1,31=1/2;
 7/7=1,12=2,30=1,33=-1/1,2,3,16;
 1/7=10,18=20,19=15,53=2033,62=2,63=103/22;
 3/5=7,6=11,11=9,16=1,25=1,30=1,71=1,82=7/1,2,3;
 4/5=5,16=3/1;
 5/5=2,13=1,32=2,38=5/2;
 8/6=4,10=1/1;
 9/15=2,16=-3/6;
 10/5=1,31=1/2;
 7/7=1,12=2,30=1,33=-1/1,2,3,16;
 1/7=10,18=20,19=15,53=1024,62=2,63=104/22;
 3/5=7,6=11,11=9,16=1,25=1,30=1,71=1,82=7/1,2,3;
 4/5=5,16=3/1;
 5/5=2,13=1,32=2,38=5/2;
 8/6=4,10=1/1;
 9/15=2,16=-3/6;
 10/5=1,31=1/2;
 7/7=1,12=2,30=1,33=-1/1,2,3,16;
 1/7=10,18=20,19=15,53=5015,62=2,63=105/22;
 7/9=1,44=-1/16;
 1/7=10,18=20,19=15,62=2,63=100/3(-43);
 2/9=110,15=1/2;
 6/7=2,8=2,9=2,10=2/1;
 99//99;
 Leave Link    1 at Fri Sep  6 17:00:41 2019, MaxMem= 4294967296 cpu:       0.4
 (Enter /opt/g09gh/gaussian/g09/l101.exe)
 ---------
 Opt=tight
 ---------
 Symbolic Z-matrix:
 Charge =  0 Multiplicity = 1 in supermolecule
 Charge =  0 Multiplicity = 1 in fragment  1.
 Charge =  0 Multiplicity = 1 in fragment  2.
 C(Fragment=1)        -1.68443   0.20365   0. 
 H(Fragment=1)        -2.78917   0.3419    0. 
 O(Fragment=1)        -1.02505   1.24486   0. 
 O(Fragment=1)        -1.38766  -1.06425   0. 
 H(Fragment=1)        -0.36065  -1.17759   0. 
 C(Fragment=2)         1.68926  -0.21855   0. 
 H(Fragment=2)         2.79603  -0.35706   0. 
 O(Fragment=2)         0.99265  -1.2504    0. 
 N(Fragment=2)         1.44623   1.09492   0. 
 H(Fragment=2)         0.47729   1.442     0. 
 H(Fragment=2)         2.26184   1.69329   0. 
 
 NAtoms=     11 NQM=     11 NQMF=      0 NMic=      0 NMicF=      0 NTot=     11.
                    Isotopes and Nuclear Properties:
 (Nuclear quadrupole moments (NQMom) in fm**2, nuclear magnetic moments (NMagM)
  in nuclear magnetons)

  Atom         1           2           3           4           5           6           7           8           9          10
 IAtWgt=          12           1          16          16           1          12           1          16          14           1
 AtmWgt=  12.0000000   1.0078250  15.9949146  15.9949146   1.0078250  12.0000000   1.0078250  15.9949146  14.0030740   1.0078250
 NucSpn=           0           1           0           0           1           0           1           0           2           1
 AtZEff=   0.0000000   0.0000000   0.0000000   0.0000000   0.0000000   0.0000000   0.0000000   0.0000000   0.0000000   0.0000000
 NQMom=    0.0000000   0.0000000   0.0000000   0.0000000   0.0000000   0.0000000   0.0000000   0.0000000   2.0440000   0.0000000
 NMagM=    0.0000000   2.7928460   0.0000000   0.0000000   2.7928460   0.0000000   2.7928460   0.0000000   0.4037610   2.7928460

  Atom        11
 IAtWgt=           1
 AtmWgt=   1.0078250
 NucSpn=           1
 AtZEff=   0.0000000
 NQMom=    0.0000000
 NMagM=    2.7928460
 Leave Link  101 at Fri Sep  6 17:00:41 2019, MaxMem= 4294967296 cpu:       0.7
 (Enter /opt/g09gh/gaussian/g09/l103.exe)

 GradGradGradGradGradGradGradGradGradGradGradGradGradGradGradGradGradGrad
 Berny optimization.
 Initialization pass.
                           ----------------------------
                           !    Initial Parameters    !
                           ! (Angstroms and Degrees)  !
 --------------------------                            --------------------------
 ! Name  Definition              Value          Derivative Info.                !
 --------------------------------------------------------------------------------
 ! R1    R(1,2)                  1.1134         estimate D2E/DX2                !
 ! R2    R(1,3)                  1.2324         estimate D2E/DX2                !
 ! R3    R(1,4)                  1.3022         estimate D2E/DX2                !
 ! R4    R(3,10)                 1.5152         estimate D2E/DX2                !
 ! R5    R(4,5)                  1.0332         estimate D2E/DX2                !
 ! R6    R(5,8)                  1.3553         estimate D2E/DX2                !
 ! R7    R(6,7)                  1.1154         estimate D2E/DX2                !
 ! R8    R(6,8)                  1.245          estimate D2E/DX2                !
 ! R9    R(6,9)                  1.3358         estimate D2E/DX2                !
 ! R10   R(9,10)                 1.0292         estimate D2E/DX2                !
 ! R11   R(9,11)                 1.0116         estimate D2E/DX2                !
 ! A1    A(2,1,3)              115.212          estimate D2E/DX2                !
 ! A2    A(2,1,4)              110.3068         estimate D2E/DX2                !
 ! A3    A(3,1,4)              134.4812         estimate D2E/DX2                !
 ! A4    A(1,3,10)             129.8208         estimate D2E/DX2                !
 ! A5    A(1,4,5)              109.4714         estimate D2E/DX2                !
 ! A6    A(7,6,8)              116.8906         estimate D2E/DX2                !
 ! A7    A(7,6,9)              107.6158         estimate D2E/DX2                !
 ! A8    A(8,6,9)              135.4936         estimate D2E/DX2                !
 ! A9    A(5,8,6)              120.9444         estimate D2E/DX2                !
 ! A10   A(6,9,10)             120.1903         estimate D2E/DX2                !
 ! A11   A(6,9,11)             115.7833         estimate D2E/DX2                !
 ! A12   A(10,9,11)            124.0264         estimate D2E/DX2                !
 ! A13   A(3,10,9)             152.8167         estimate D2E/DX2                !
 ! A14   L(4,5,8,1,-1)         176.7817         estimate D2E/DX2                !
 ! A15   L(4,5,8,1,-2)         180.0            estimate D2E/DX2                !
 ! D1    D(2,1,3,10)           180.0            estimate D2E/DX2                !
 ! D2    D(4,1,3,10)             0.0            estimate D2E/DX2                !
 ! D3    D(2,1,4,5)            180.0            estimate D2E/DX2                !
 ! D4    D(3,1,4,5)              0.0            estimate D2E/DX2                !
 ! D5    D(1,3,10,9)             0.0            estimate D2E/DX2                !
 ! D6    D(1,4,8,6)              0.0            estimate D2E/DX2                !
 ! D7    D(7,6,8,5)            180.0            estimate D2E/DX2                !
 ! D8    D(9,6,8,5)              0.0            estimate D2E/DX2                !
 ! D9    D(7,6,9,10)           180.0            estimate D2E/DX2                !
 ! D10   D(7,6,9,11)             0.0            estimate D2E/DX2                !
 ! D11   D(8,6,9,10)             0.0            estimate D2E/DX2                !
 ! D12   D(8,6,9,11)           180.0            estimate D2E/DX2                !
 ! D13   D(6,9,10,3)             0.0            estimate D2E/DX2                !
 ! D14   D(11,9,10,3)          180.0            estimate D2E/DX2                !
 --------------------------------------------------------------------------------
 Trust Radius=3.00D-01 FncErr=1.00D-07 GrdErr=1.00D-07
 Number of steps in this run=  50 maximum allowed number of steps= 100.
 GradGradGradGradGradGradGradGradGradGradGradGradGradGradGradGradGradGrad

 Leave Link  103 at Fri Sep  6 17:00:41 2019, MaxMem= 4294967296 cpu:       0.0
 (Enter /opt/g09gh/gaussian/g09/l202.exe)
                          Input orientation:                          
 ---------------------------------------------------------------------
 Center     Atomic      Atomic             Coordinates (Angstroms)
 Number     Number       Type             X           Y           Z
 ---------------------------------------------------------------------
      1          6           0       -1.684426    0.203647    0.000000
      2          1           0       -2.789173    0.341901    0.000000
      3          8           0       -1.025046    1.244864    0.000000
      4          8           0       -1.387661   -1.064248    0.000000
      5          1           0       -0.360648   -1.177591    0.000000
      6          6           0        1.689259   -0.218554    0.000000
      7          1           0        2.796030   -0.357061    0.000000
      8          8           0        0.992648   -1.250396    0.000000
      9          7           0        1.446235    1.094916    0.000000
     10          1           0        0.477285    1.441998    0.000000
     11          1           0        2.261839    1.693288    0.000000
 ---------------------------------------------------------------------
                    Distance matrix (angstroms):
                    1          2          3          4          5
     1  C    0.000000
     2  H    1.113364   0.000000
     3  O    1.232443   1.981789   0.000000
     4  O    1.302163   1.985319   2.337410   0.000000
     5  H    1.913167   2.864714   2.511914   1.033248   0.000000
     6  C    3.400001   4.513364   3.083673   3.191023   2.263154
     7  H    4.515405   5.628768   4.143282   4.243039   3.261576
     8  O    3.046468   4.103361   3.208958   2.387576   1.355252
     9  N    3.255058   4.301826   2.475826   3.562717   2.903293
    10  H    2.491287   3.446732   1.515210   3.123986   2.750341
    11  H    4.218061   5.228668   3.317333   4.574150   3.888364
                    6          7          8          9         10
     6  C    0.000000
     7  H    1.115404   0.000000
     8  O    1.244976   2.012519   0.000000
     9  N    1.335763   1.982469   2.388771   0.000000
    10  H    2.055799   2.934823   2.741274   1.029237   0.000000
    11  H    1.995742   2.118794   3.205639   1.011563   1.802159
                   11
    11  H    0.000000
 Symmetry turned off by external request.
 Stoichiometry    C2H5NO3
 Framework group  CS[SG(C2H5NO3)]
 Deg. of freedom    19
 Full point group                 CS      NOp   2
 Rotational constants (GHZ):      5.4695478      2.7740349      1.8405488
 Leave Link  202 at Fri Sep  6 17:00:41 2019, MaxMem= 4294967296 cpu:       0.1
 (Enter /opt/g09gh/gaussian/g09/l122.exe)
 Leave Link  122 at Fri Sep  6 17:00:42 2019, MaxMem= 4294967296 cpu:       0.0
 (Enter /opt/g09gh/gaussian/g09/l301.exe)
 Standard basis: CC-pVTZ (5D, 7F)
 Ernie: Thresh=  0.10000D-02 Tol=  0.10000D-05 Strict=F.
 Ernie:  18 primitive shells out of 196 were deleted.
 Integral buffers will be    131072 words long.
 Raffenetti 1 integral format.
 Two-electron integral symmetry is turned off.
   250 basis functions,   397 primitive gaussians,   285 cartesian basis functions
    24 alpha electrons       24 beta electrons
       nuclear repulsion energy       241.9334494646 Hartrees.
 IExCor=    0 DFT=F Ex=HF Corr=None ExCW=0 ScaHFX=  1.000000
 ScaDFX=  1.000000  1.000000  1.000000  1.000000 ScalE2=  1.000000  1.000000
 IRadAn=      0 IRanWt=     -1 IRanGd=            0 ICorTp=0
 NAtoms=   11 NActive=   11 NUniq=   11 SFac= 7.50D-01 NAtFMM=   80 NAOKFM=F Big=F
 Leave Link  301 at Fri Sep  6 17:00:42 2019, MaxMem= 4294967296 cpu:       0.4
 (Enter /opt/g09gh/gaussian/g09/l302.exe)
 NPDir=0 NMtPBC=     1 NCelOv=     1 NCel=       1 NClECP=     1 NCelD=      1
         NCelK=      1 NCelE2=     1 NClLst=     1 CellRange=     0.0.
 One-electron integrals computed using PRISM.
 NBasis=   250 RedAO= T  NBF=   250
 NBsUse=   250 1.00D-06 NBFU=   250
 Leave Link  302 at Fri Sep  6 17:00:42 2019, MaxMem= 4294967296 cpu:       1.8
 (Enter /opt/g09gh/gaussian/g09/l303.exe)
 DipDrv:  MaxL=1.
 Leave Link  303 at Fri Sep  6 17:00:42 2019, MaxMem= 4294967296 cpu:       0.4
 (Enter /opt/g09gh/gaussian/g09/l401.exe)
 Harris functional with IExCor=  205 diagonalized for initial guess.
 ExpMin= 1.03D-01 ExpMax= 1.53D+04 ExpMxC= 5.22D+02 IAcc=1 IRadAn=         1 AccDes= 0.00D+00
 HarFok:  IExCor=  205 AccDes= 0.00D+00 IRadAn=         1 IDoV= 1
 ScaDFX=  1.000000  1.000000  1.000000  1.000000
 FoFCou: FMM=F IPFlag=           0 FMFlag=      100000 FMFlg1=           0
         NFxFlg=           0 DoJE=T BraDBF=F KetDBF=T FulRan=T
         Omega=  0.000000  0.000000  1.000000  0.000000  0.000000 ICntrl=     500 IOpCl=  0
         NMat0=    1 NMatS0=    1 NMatT0=    0 NMatD0=    1 NMtDS0=    0 NMtDT0=    0
         I1Cent=           4 NGrid=           0.
 Symmetry not used in FoFCou.
 Harris En= -358.146577662364    
 Leave Link  401 at Fri Sep  6 17:00:42 2019, MaxMem= 4294967296 cpu:       3.2
 (Enter /opt/g09gh/gaussian/g09/l502.exe)
 Closed shell SCF:
 Requested convergence on RMS density matrix=1.00D-08 within  64 cycles.
 Requested convergence on MAX density matrix=1.00D-06.
 Requested convergence on             energy=1.00D-06.
 No special actions if energy rises.
 Using DIIS extrapolation, IDIIS=  1040.
 Two-electron integral symmetry not used.
 Keep R1 ints in memory in canonical form, NReq=842455314.
 IEnd=      253225 IEndB=      253225 NGot=  4294967296 MDV=  3464294388
 LenX=  3464294388 LenY=  3464212722
 Symmetry not used in FoFDir.
 MinBra= 0 MaxBra= 3 Meth= 1.
 IRaf=       0 NMat=   1 IRICut=       1 DoRegI=T DoRafI=F ISym2E= 0 JSym2E=0.

 Cycle   1  Pass 1  IDiag  1:
 E= -357.589045466461    
 DIIS: error= 3.38D-02 at cycle   1 NSaved=   1.
 NSaved= 1 IEnMin= 1 EnMin= -357.589045466461     IErMin= 1 ErrMin= 3.38D-02
 ErrMax= 3.38D-02 EMaxC= 1.00D-01 BMatC= 6.61D-01 BMatP= 6.61D-01
 IDIUse=3 WtCom= 6.62D-01 WtEn= 3.38D-01
 Coeff-Com:  0.100D+01
 Coeff-En:   0.100D+01
 Coeff:      0.100D+01
 Gap=     0.572 Goal=   None    Shift=    0.000
 GapD=    0.572 DampG=2.000 DampE=0.500 DampFc=1.0000 IDamp=-1.
 RMSDP=1.57D-03 MaxDP=5.75D-02              OVMax= 1.03D-01

 Cycle   2  Pass 1  IDiag  1:
 E= -357.779983844259     Delta-E=       -0.190938377798 Rises=F Damp=F
 DIIS: error= 1.19D-02 at cycle   2 NSaved=   2.
 NSaved= 2 IEnMin= 2 EnMin= -357.779983844259     IErMin= 2 ErrMin= 1.19D-02
 ErrMax= 1.19D-02 EMaxC= 1.00D-01 BMatC= 7.74D-02 BMatP= 6.61D-01
 IDIUse=3 WtCom= 8.81D-01 WtEn= 1.19D-01
 Coeff-Com:  0.181D+00 0.819D+00
 Coeff-En:   0.000D+00 0.100D+01
 Coeff:      0.159D+00 0.841D+00
 Gap=     0.586 Goal=   None    Shift=    0.000
 RMSDP=7.44D-04 MaxDP=3.13D-02 DE=-1.91D-01 OVMax= 5.55D-02

 Cycle   3  Pass 1  IDiag  1:
 E= -357.821947118798     Delta-E=       -0.041963274539 Rises=F Damp=F
 DIIS: error= 5.63D-03 at cycle   3 NSaved=   3.
 NSaved= 3 IEnMin= 3 EnMin= -357.821947118798     IErMin= 3 ErrMin= 5.63D-03
 ErrMax= 5.63D-03 EMaxC= 1.00D-01 BMatC= 1.14D-02 BMatP= 7.74D-02
 IDIUse=3 WtCom= 9.44D-01 WtEn= 5.63D-02
 Coeff-Com: -0.251D-01 0.247D+00 0.778D+00
 Coeff-En:   0.000D+00 0.000D+00 0.100D+01
 Coeff:     -0.237D-01 0.233D+00 0.790D+00
 Gap=     0.560 Goal=   None    Shift=    0.000
 RMSDP=1.80D-04 MaxDP=6.87D-03 DE=-4.20D-02 OVMax= 1.64D-02

 Cycle   4  Pass 1  IDiag  1:
 E= -357.828646194159     Delta-E=       -0.006699075361 Rises=F Damp=F
 DIIS: error= 9.78D-04 at cycle   4 NSaved=   4.
 NSaved= 4 IEnMin= 4 EnMin= -357.828646194159     IErMin= 4 ErrMin= 9.78D-04
 ErrMax= 9.78D-04 EMaxC= 1.00D-01 BMatC= 2.80D-04 BMatP= 1.14D-02
 IDIUse=3 WtCom= 9.90D-01 WtEn= 9.78D-03
 Coeff-Com: -0.947D-02 0.496D-01 0.215D+00 0.745D+00
 Coeff-En:   0.000D+00 0.000D+00 0.000D+00 0.100D+01
 Coeff:     -0.938D-02 0.492D-01 0.212D+00 0.748D+00
 Gap=     0.559 Goal=   None    Shift=    0.000
 RMSDP=4.15D-05 MaxDP=1.40D-03 DE=-6.70D-03 OVMax= 4.07D-03

 Cycle   5  Pass 1  IDiag  1:
 E= -357.828900917116     Delta-E=       -0.000254722957 Rises=F Damp=F
 DIIS: error= 4.41D-04 at cycle   5 NSaved=   5.
 NSaved= 5 IEnMin= 5 EnMin= -357.828900917116     IErMin= 5 ErrMin= 4.41D-04
 ErrMax= 4.41D-04 EMaxC= 1.00D-01 BMatC= 2.91D-05 BMatP= 2.80D-04
 IDIUse=3 WtCom= 9.96D-01 WtEn= 4.41D-03
 Coeff-Com:  0.209D-02-0.216D-01-0.803D-01 0.586D-01 0.104D+01
 Coeff-En:   0.000D+00 0.000D+00 0.000D+00 0.000D+00 0.100D+01
 Coeff:      0.208D-02-0.215D-01-0.800D-01 0.584D-01 0.104D+01
 Gap=     0.559 Goal=   None    Shift=    0.000
 RMSDP=2.12D-05 MaxDP=5.61D-04 DE=-2.55D-04 OVMax= 2.41D-03

 Cycle   6  Pass 1  IDiag  1:
 E= -357.828947420731     Delta-E=       -0.000046503615 Rises=F Damp=F
 DIIS: error= 1.25D-04 at cycle   6 NSaved=   6.
 NSaved= 6 IEnMin= 6 EnMin= -357.828947420731     IErMin= 6 ErrMin= 1.25D-04
 ErrMax= 1.25D-04 EMaxC= 1.00D-01 BMatC= 5.02D-06 BMatP= 2.91D-05
 IDIUse=3 WtCom= 9.99D-01 WtEn= 1.25D-03
 Coeff-Com:  0.174D-02-0.124D-01-0.511D-01-0.759D-01 0.292D+00 0.846D+00
 Coeff-En:   0.000D+00 0.000D+00 0.000D+00 0.000D+00 0.000D+00 0.100D+01
 Coeff:      0.174D-02-0.124D-01-0.511D-01-0.758D-01 0.292D+00 0.846D+00
 Gap=     0.560 Goal=   None    Shift=    0.000
 RMSDP=8.58D-06 MaxDP=2.34D-04 DE=-4.65D-05 OVMax= 6.03D-04

 Cycle   7  Pass 1  IDiag  1:
 E= -357.828954991645     Delta-E=       -0.000007570914 Rises=F Damp=F
 DIIS: error= 5.22D-05 at cycle   7 NSaved=   7.
 NSaved= 7 IEnMin= 7 EnMin= -357.828954991645     IErMin= 7 ErrMin= 5.22D-05
 ErrMax= 5.22D-05 EMaxC= 1.00D-01 BMatC= 4.18D-07 BMatP= 5.02D-06
 IDIUse=1 WtCom= 1.00D+00 WtEn= 0.00D+00
 Coeff-Com: -0.312D-03 0.353D-02 0.139D-01-0.770D-02-0.144D+00-0.106D+00
 Coeff-Com:  0.124D+01
 Coeff:     -0.312D-03 0.353D-02 0.139D-01-0.770D-02-0.144D+00-0.106D+00
 Coeff:      0.124D+01
 Gap=     0.560 Goal=   None    Shift=    0.000
 RMSDP=3.98D-06 MaxDP=1.56D-04 DE=-7.57D-06 OVMax= 5.59D-04

 Cycle   8  Pass 1  IDiag  1:
 E= -357.828956367154     Delta-E=       -0.000001375509 Rises=F Damp=F
 DIIS: error= 1.34D-05 at cycle   8 NSaved=   8.
 NSaved= 8 IEnMin= 8 EnMin= -357.828956367154     IErMin= 8 ErrMin= 1.34D-05
 ErrMax= 1.34D-05 EMaxC= 1.00D-01 BMatC= 5.56D-08 BMatP= 4.18D-07
 IDIUse=1 WtCom= 1.00D+00 WtEn= 0.00D+00
 Coeff-Com: -0.179D-03 0.144D-02 0.563D-02 0.382D-02-0.276D-01-0.972D-01
 Coeff-Com:  0.881D-01 0.103D+01
 Coeff:     -0.179D-03 0.144D-02 0.563D-02 0.382D-02-0.276D-01-0.972D-01
 Coeff:      0.881D-01 0.103D+01
 Gap=     0.560 Goal=   None    Shift=    0.000
 RMSDP=1.17D-06 MaxDP=4.93D-05 DE=-1.38D-06 OVMax= 1.83D-04

 Cycle   9  Pass 1  IDiag  1:
 E= -357.828956501635     Delta-E=       -0.000000134481 Rises=F Damp=F
 DIIS: error= 8.68D-06 at cycle   9 NSaved=   9.
 NSaved= 9 IEnMin= 9 EnMin= -357.828956501635     IErMin= 9 ErrMin= 8.68D-06
 ErrMax= 8.68D-06 EMaxC= 1.00D-01 BMatC= 9.79D-09 BMatP= 5.56D-08
 IDIUse=1 WtCom= 1.00D+00 WtEn= 0.00D+00
 Coeff-Com:  0.108D-04-0.229D-03-0.987D-03 0.428D-03 0.179D-01-0.594D-02
 Coeff-Com: -0.154D+00 0.136D+00 0.101D+01
 Coeff:      0.108D-04-0.229D-03-0.987D-03 0.428D-03 0.179D-01-0.594D-02
 Coeff:     -0.154D+00 0.136D+00 0.101D+01
 Gap=     0.560 Goal=   None    Shift=    0.000
 RMSDP=4.91D-07 MaxDP=1.92D-05 DE=-1.34D-07 OVMax= 8.43D-05

 Cycle  10  Pass 1  IDiag  1:
 E= -357.828956525314     Delta-E=       -0.000000023679 Rises=F Damp=F
 DIIS: error= 2.33D-06 at cycle  10 NSaved=  10.
 NSaved=10 IEnMin=10 EnMin= -357.828956525314     IErMin=10 ErrMin= 2.33D-06
 ErrMax= 2.33D-06 EMaxC= 1.00D-01 BMatC= 1.39D-09 BMatP= 9.79D-09
 IDIUse=1 WtCom= 1.00D+00 WtEn= 0.00D+00
 Coeff-Com:  0.270D-04-0.218D-03-0.798D-03-0.112D-02 0.472D-02 0.129D-01
 Coeff-Com:  0.238D-02-0.174D+00-0.690D-01 0.123D+01
 Coeff:      0.270D-04-0.218D-03-0.798D-03-0.112D-02 0.472D-02 0.129D-01
 Coeff:      0.238D-02-0.174D+00-0.690D-01 0.123D+01
 Gap=     0.560 Goal=   None    Shift=    0.000
 RMSDP=2.29D-07 MaxDP=7.02D-06 DE=-2.37D-08 OVMax= 3.29D-05

 Cycle  11  Pass 1  IDiag  1:
 E= -357.828956529370     Delta-E=       -0.000000004056 Rises=F Damp=F
 DIIS: error= 8.74D-07 at cycle  11 NSaved=  11.
 NSaved=11 IEnMin=11 EnMin= -357.828956529370     IErMin=11 ErrMin= 8.74D-07
 ErrMax= 8.74D-07 EMaxC= 1.00D-01 BMatC= 1.72D-10 BMatP= 1.39D-09
 IDIUse=1 WtCom= 1.00D+00 WtEn= 0.00D+00
 Coeff-Com:  0.182D-08 0.154D-04 0.120D-03-0.229D-03-0.209D-02 0.103D-02
 Coeff-Com:  0.238D-01-0.348D-01-0.143D+00 0.998D-01 0.106D+01
 Coeff:      0.182D-08 0.154D-04 0.120D-03-0.229D-03-0.209D-02 0.103D-02
 Coeff:      0.238D-01-0.348D-01-0.143D+00 0.998D-01 0.106D+01
 Gap=     0.560 Goal=   None    Shift=    0.000
 RMSDP=7.73D-08 MaxDP=3.06D-06 DE=-4.06D-09 OVMax= 1.11D-05

 Cycle  12  Pass 1  IDiag  1:
 E= -357.828956529765     Delta-E=       -0.000000000396 Rises=F Damp=F
 DIIS: error= 2.87D-07 at cycle  12 NSaved=  12.
 NSaved=12 IEnMin=12 EnMin= -357.828956529765     IErMin=12 ErrMin= 2.87D-07
 ErrMax= 2.87D-07 EMaxC= 1.00D-01 BMatC= 2.19D-11 BMatP= 1.72D-10
 IDIUse=1 WtCom= 1.00D+00 WtEn= 0.00D+00
 Coeff-Com: -0.347D-05 0.324D-04 0.141D-03 0.494D-04-0.118D-02-0.135D-02
 Coeff-Com:  0.582D-02 0.133D-01-0.241D-01-0.128D+00 0.249D+00 0.887D+00
 Coeff:     -0.347D-05 0.324D-04 0.141D-03 0.494D-04-0.118D-02-0.135D-02
 Coeff:      0.582D-02 0.133D-01-0.241D-01-0.128D+00 0.249D+00 0.887D+00
 Gap=     0.560 Goal=   None    Shift=    0.000
 RMSDP=2.01D-08 MaxDP=9.42D-07 DE=-3.96D-10 OVMax= 2.28D-06

 Cycle  13  Pass 1  IDiag  1:
 E= -357.828956529798     Delta-E=       -0.000000000032 Rises=F Damp=F
 DIIS: error= 8.46D-08 at cycle  13 NSaved=  13.
 NSaved=13 IEnMin=13 EnMin= -357.828956529798     IErMin=13 ErrMin= 8.46D-08
 ErrMax= 8.46D-08 EMaxC= 1.00D-01 BMatC= 2.15D-12 BMatP= 2.19D-11
 IDIUse=1 WtCom= 1.00D+00 WtEn= 0.00D+00
 Coeff-Com: -0.626D-06 0.370D-05 0.911D-05 0.316D-04 0.953D-04-0.273D-03
 Coeff-Com: -0.253D-02 0.684D-02 0.178D-01-0.365D-01-0.110D+00 0.148D+00
 Coeff-Com:  0.977D+00
 Coeff:     -0.626D-06 0.370D-05 0.911D-05 0.316D-04 0.953D-04-0.273D-03
 Coeff:     -0.253D-02 0.684D-02 0.178D-01-0.365D-01-0.110D+00 0.148D+00
 Coeff:      0.977D+00
 Gap=     0.560 Goal=   None    Shift=    0.000
 RMSDP=6.73D-09 MaxDP=2.54D-07 DE=-3.24D-11 OVMax= 6.42D-07

 SCF Done:  E(RHF) =  -357.828956530     A.U. after   13 cycles
             Convg  =    0.6729D-08             -V/T =  2.0013
 KE= 3.573627185244D+02 PE=-1.328151699871D+03 EE= 3.710265753519D+02
 Leave Link  502 at Fri Sep  6 17:01:29 2019, MaxMem= 4294967296 cpu:     368.6
 (Enter /opt/g09gh/gaussian/g09/l801.exe)
 ExpMin= 1.03D-01 ExpMax= 1.53D+04 ExpMxC= 5.22D+02 IAcc=1 IRadAn=         1 AccDes= 0.00D+00
 HarFok:  IExCor=  205 AccDes= 0.00D+00 IRadAn=         1 IDoV=-2
 ScaDFX=  1.000000  1.000000  1.000000  1.000000
 Largest valence mixing into a core orbital is  2.20D-04
 Largest core mixing into a valence orbital is  2.86D-05
 Range of M.O.s used for correlation:     7   250
 NBasis=   250 NAE=    24 NBE=    24 NFC=     6 NFV=     0
 NROrb=    244 NOA=    18 NOB=    18 NVA=   226 NVB=   226
 Leave Link  801 at Fri Sep  6 17:01:29 2019, MaxMem= 4294967296 cpu:       0.4
 (Enter /opt/g09gh/gaussian/g09/l906.exe)
 Frozen-core derivative calculation, NFC=   6 NFV=   0.
 FulOut=F Deriv=T AODrv=T NAtomX=    11
   MMem=         378  MDisk=          18 MDiskD=          18
  W3Min=     1710000 MinDsk=     2696795 NBas6D=         285
 NBas2D=       41364    NTT=       40755    LW2=     3500000
    MDV=  4294226370 MDiskM=       75302 NBas2p=       39717
 Fully direct method using O(ONN) memory.
 IMap=   1   2   3   4   5   6   7   8   9  10  11  12  13  14  15  16  17  18  19  20
 IMap=  21  22  23  24
 JobTyp=1 Pass  1:  I=   7 to  24 NPSUse=  8 ParTrn=T ParDer=T DoDerP=T.
 Spin components of T(2) and E(2):
     alpha-alpha T2 =       0.4427507613D-01 E2=     -0.1610640037D+00
     alpha-beta  T2 =       0.2397048719D+00 E2=     -0.9302886201D+00
     beta-beta   T2 =       0.4427507613D-01 E2=     -0.1610640037D+00
 The integrals were generated   1 times.
 ANorm=    0.1152499468D+01
 E2 =    -0.1252416627D+01 EUMP2 =    -0.35908137315724D+03
 Leave Link  906 at Fri Sep  6 17:02:26 2019, MaxMem= 4294967296 cpu:     454.4
 (Enter /opt/g09gh/gaussian/g09/l1002.exe)
 Minotr:  Closed shell wavefunction.
          Computing MP2/KS-MP2 derivatives.
          Using Z-Vector for PSCF gradient.
          Skipping F1 and S1 gradient terms here.
          IDoAtm=11111111111
          Frozen-core window.
          Direct CPHF calculation.
          Differentiating once with respect to electric field.
                with respect to dipole field.
          Differentiating once with respect to nuclear coordinates.
          Requested convergence is 1.0D-10 RMS, and 1.0D-09 maximum.
          NewPWx=F KeepS1=T KeepF1=T KeepIn=T MapXYZ=F SortEE=F KeepMc=T.
          MDV=    4294967182 using IRadAn=       0.
          Keep R1 ints in memory in canonical form, NReq=832447090.
 Symmetry not used in FoFDir.
 MinBra= 0 MaxBra= 3 Meth= 1.
 IRaf=       0 NMat=   1 IRICut=       1 DoRegI=T DoRafI=F ISym2E= 0 JSym2E=0.
          Solving linear equations separately, MaxMat=       0.
          There are     1 degrees of freedom in the 1st order CPHF.  IDoFFX=0.
 LinEq1:  Iter=  0 NonCon=     1 RMS=4.37D-03 Max=1.25D-01
 AX will form     1 AO Fock derivatives at one time.
 LinEq1:  Iter=  1 NonCon=     1 RMS=1.14D-03 Max=1.55D-02
 LinEq1:  Iter=  2 NonCon=     1 RMS=4.17D-04 Max=6.65D-03
 LinEq1:  Iter=  3 NonCon=     1 RMS=1.76D-04 Max=3.96D-03
 LinEq1:  Iter=  4 NonCon=     1 RMS=4.86D-05 Max=5.46D-04
 LinEq1:  Iter=  5 NonCon=     1 RMS=1.77D-05 Max=3.06D-04
 LinEq1:  Iter=  6 NonCon=     1 RMS=5.27D-06 Max=7.39D-05
 LinEq1:  Iter=  7 NonCon=     1 RMS=1.35D-06 Max=3.74D-05
 LinEq1:  Iter=  8 NonCon=     1 RMS=4.98D-07 Max=5.74D-06
 LinEq1:  Iter=  9 NonCon=     1 RMS=2.04D-07 Max=5.55D-06
 LinEq1:  Iter= 10 NonCon=     1 RMS=7.12D-08 Max=1.49D-06
 LinEq1:  Iter= 11 NonCon=     1 RMS=2.48D-08 Max=4.40D-07
 LinEq1:  Iter= 12 NonCon=     1 RMS=8.25D-09 Max=1.11D-07
 LinEq1:  Iter= 13 NonCon=     1 RMS=1.98D-09 Max=2.76D-08
 LinEq1:  Iter= 14 NonCon=     1 RMS=4.93D-10 Max=7.21D-09
 LinEq1:  Iter= 15 NonCon=     1 RMS=1.32D-10 Max=3.45D-09
 LinEq1:  Iter= 16 NonCon=     0 RMS=2.97D-11 Max=7.83D-10
 Linear equations converged to 1.000D-10 1.000D-09 after    16 iterations.
 End of Minotr Frequency-dependent properties file   721 does not exist.
 End of Minotr Frequency-dependent properties file   722 does not exist.
 Leave Link 1002 at Fri Sep  6 17:03:31 2019, MaxMem= 4294967296 cpu:     517.9
 (Enter /opt/g09gh/gaussian/g09/l601.exe)
 Copying SCF densities to generalized density rwf, IOpCl= 0 IROHF=0.

 **********************************************************************

            Population analysis using the SCF density.

 **********************************************************************

 Alpha  occ. eigenvalues --  -20.58208 -20.56066 -20.55024 -15.59370 -11.38697
 Alpha  occ. eigenvalues --  -11.38229  -1.45120  -1.40521  -1.36156  -1.23844
 Alpha  occ. eigenvalues --   -0.90144  -0.83569  -0.78476  -0.74969  -0.69850
 Alpha  occ. eigenvalues --   -0.65664  -0.61819  -0.61797  -0.58959  -0.57027
 Alpha  occ. eigenvalues --   -0.48209  -0.47973  -0.43965  -0.43136
 Alpha virt. eigenvalues --    0.12844   0.15889   0.17815   0.18183   0.18491
 Alpha virt. eigenvalues --    0.25047   0.27906   0.33553   0.35301   0.37994
 Alpha virt. eigenvalues --    0.38858   0.40981   0.45717   0.49164   0.51277
 Alpha virt. eigenvalues --    0.53566   0.56438   0.58511   0.59219   0.61959
 Alpha virt. eigenvalues --    0.63506   0.68157   0.68553   0.70324   0.71262
 Alpha virt. eigenvalues --    0.72003   0.75052   0.75395   0.76702   0.79349
 Alpha virt. eigenvalues --    0.80642   0.84794   0.88095   0.89082   0.90250
 Alpha virt. eigenvalues --    0.94454   0.95626   0.98356   0.99678   1.02325
 Alpha virt. eigenvalues --    1.03697   1.06113   1.08657   1.13019   1.15767
 Alpha virt. eigenvalues --    1.17077   1.19061   1.20702   1.23430   1.27848
 Alpha virt. eigenvalues --    1.28302   1.30639   1.38798   1.40411   1.45344
 Alpha virt. eigenvalues --    1.53284   1.56013   1.58474   1.59127   1.62257
 Alpha virt. eigenvalues --    1.62849   1.71153   1.72177   1.76949   1.85538
 Alpha virt. eigenvalues --    1.85579   1.89942   1.94611   1.96802   1.99618
 Alpha virt. eigenvalues --    2.03160   2.11696   2.16594   2.20323   2.21775
 Alpha virt. eigenvalues --    2.22702   2.23986   2.30672   2.36234   2.39414
 Alpha virt. eigenvalues --    2.40696   2.42471   2.47578   2.55545   2.59450
 Alpha virt. eigenvalues --    2.62563   2.69741   2.77582   2.81424   2.83193
 Alpha virt. eigenvalues --    2.84369   2.90361   2.92709   2.94071   2.96916
 Alpha virt. eigenvalues --    2.98633   3.03808   3.08641   3.13869   3.15513
 Alpha virt. eigenvalues --    3.22042   3.25920   3.26950   3.27593   3.31028
 Alpha virt. eigenvalues --    3.32789   3.35620   3.40533   3.42874   3.43470
 Alpha virt. eigenvalues --    3.44605   3.48610   3.49928   3.56158   3.57936
 Alpha virt. eigenvalues --    3.58189   3.60804   3.62302   3.65529   3.67511
 Alpha virt. eigenvalues --    3.68330   3.74085   3.74801   3.78048   3.78979
 Alpha virt. eigenvalues --    3.86347   3.88819   3.90479   3.96227   3.97051
 Alpha virt. eigenvalues --    4.02581   4.05286   4.06414   4.11797   4.13141
 Alpha virt. eigenvalues --    4.16805   4.18928   4.19822   4.21131   4.22196
 Alpha virt. eigenvalues --    4.27995   4.30853   4.35962   4.40965   4.42322
 Alpha virt. eigenvalues --    4.42517   4.52466   4.54320   4.54686   4.55826
 Alpha virt. eigenvalues --    4.57600   4.64818   4.64837   4.68576   4.78369
 Alpha virt. eigenvalues --    4.80959   4.88420   4.94536   4.98081   4.99929
 Alpha virt. eigenvalues --    5.02153   5.10544   5.12734   5.16581   5.19109
 Alpha virt. eigenvalues --    5.20493   5.24054   5.27166   5.41322   5.47214
 Alpha virt. eigenvalues --    5.50127   5.50194   5.63811   5.65390   5.70851
 Alpha virt. eigenvalues --    5.73832   5.75351   5.79583   5.80224   5.87802
 Alpha virt. eigenvalues --    5.88332   5.89814   5.97846   6.01628   6.04977
 Alpha virt. eigenvalues --    6.12984   6.16556   6.17477   6.35036   6.47845
 Alpha virt. eigenvalues --    6.52099   6.53959   6.67359   6.67781   6.73614
 Alpha virt. eigenvalues --    6.79230   6.87632   6.88966   6.93299   6.96665
 Alpha virt. eigenvalues --    7.01213   7.08161   7.12272   7.13656   7.16031
 Alpha virt. eigenvalues --    7.16155   7.28861   7.35967   7.37427   7.39026
 Alpha virt. eigenvalues --    7.46329   7.46479   7.49342   7.63017   7.68620
 Alpha virt. eigenvalues --    7.77645   7.93409   8.03451   8.07951   8.35526
 Alpha virt. eigenvalues --   10.43515  10.58770  12.69149  13.09705  13.99039
 Alpha virt. eigenvalues --   14.92784
          Condensed to atoms (all electrons):
              1          2          3          4          5          6
     1  C    4.208364   0.422317   0.603835   0.454347  -0.024028   0.003759
     2  H    0.422317   0.592953  -0.060489  -0.063632   0.003113   0.000396
     3  O    0.603835  -0.060489   7.990786  -0.065686  -0.001564   0.007223
     4  O    0.454347  -0.063632  -0.065686   7.780235   0.324548   0.003674
     5  H   -0.024028   0.003113  -0.001564   0.324548   0.279146  -0.006953
     6  C    0.003759   0.000396   0.007223   0.003674  -0.006953   4.310033
     7  H    0.000170  -0.000008  -0.000206  -0.000445   0.001900   0.442975
     8  O    0.004402  -0.000505  -0.002427  -0.071194   0.121939   0.596698
     9  N   -0.001735  -0.000511  -0.072166   0.001083  -0.002230   0.439262
    10  H   -0.008487   0.000535   0.057865   0.000328   0.001174  -0.016973
    11  H    0.000158   0.000031   0.002880  -0.000047  -0.000075  -0.021507
              7          8          9         10         11
     1  C    0.000170   0.004402  -0.001735  -0.008487   0.000158
     2  H   -0.000008  -0.000505  -0.000511   0.000535   0.000031
     3  O   -0.000206  -0.002427  -0.072166   0.057865   0.002880
     4  O   -0.000445  -0.071194   0.001083   0.000328  -0.000047
     5  H    0.001900   0.121939  -0.002230   0.001174  -0.000075
     6  C    0.442975   0.596698   0.439262  -0.016973  -0.021507
     7  H    0.599329  -0.046290  -0.096921   0.004713  -0.006409
     8  O   -0.046290   7.901811  -0.078467  -0.000522   0.002522
     9  N   -0.096921  -0.078467   6.357077   0.372283   0.374307
    10  H    0.004713  -0.000522   0.372283   0.352661  -0.029194
    11  H   -0.006409   0.002522   0.374307  -0.029194   0.488077
 Mulliken atomic charges:
              1
     1  C    0.336899
     2  H    0.105800
     3  O   -0.460051
     4  O   -0.363211
     5  H    0.303031
     6  C    0.241414
     7  H    0.101191
     8  O   -0.427966
     9  N   -0.291983
    10  H    0.265618
    11  H    0.189259
 Sum of Mulliken atomic charges =   0.00000
 Mulliken charges with hydrogens summed into heavy atoms:
              1
     1  C    0.442698
     3  O   -0.460051
     4  O   -0.060181
     6  C    0.342605
     8  O   -0.427966
     9  N    0.162894
 Sum of Mulliken charges with hydrogens summed into heavy atoms =   0.00000
          Condensed to fragments (all electrons):
     1      -0.077534
     2       0.077534
 Electronic spatial extent (au):  <R**2>=            613.9084
 Charge=              0.0000 electrons
 Dipole moment (field-independent basis, Debye):
    X=              2.3880    Y=              2.0847    Z=              0.0000  Tot=              3.1699
 Quadrupole moment (field-independent basis, Debye-Ang):
   XX=            -25.4409   YY=            -39.4724   ZZ=            -35.4235
   XY=              4.0012   XZ=              0.0000   YZ=              0.0000
 Traceless Quadrupole moment (field-independent basis, Debye-Ang):
   XX=              8.0047   YY=             -6.0268   ZZ=             -1.9779
   XY=              4.0012   XZ=              0.0000   YZ=              0.0000
 Octapole moment (field-independent basis, Debye-Ang**2):
  XXX=              8.5522  YYY=              4.4554  ZZZ=              0.0000  XYY=              8.6972
  XXY=             10.8689  XXZ=              0.0000  XZZ=             -2.9698  YZZ=             -2.0955
  YYZ=              0.0000  XYZ=              0.0000
 Hexadecapole moment (field-independent basis, Debye-Ang**3):
 XXXX=           -388.7114 YYYY=           -232.9819 ZZZZ=            -29.9623 XXXY=              7.6480
 XXXZ=              0.0000 YYYX=             21.6682 YYYZ=              0.0000 ZZZX=              0.0000
 ZZZY=              0.0000 XXYY=           -119.4469 XXZZ=            -86.8628 YYZZ=            -46.2705
 XXYZ=              0.0000 YYXZ=              0.0000 ZZXY=             -2.3520
 N-N= 2.419334494646D+02 E-N=-1.328151696524D+03  KE= 3.573627185244D+02
 No NMR shielding tensors so no spin-rotation constants.
 Leave Link  601 at Fri Sep  6 17:03:31 2019, MaxMem= 4294967296 cpu:       1.8
 (Enter /opt/g09gh/gaussian/g09/l701.exe)
 Compute integral first derivatives.
 ... and contract with generalized density number  2.
 Leave Link  701 at Fri Sep  6 17:03:31 2019, MaxMem= 4294967296 cpu:       1.9
 (Enter /opt/g09gh/gaussian/g09/l702.exe)
 L702 exits ... SP integral derivatives will be done elsewhere.
 Leave Link  702 at Fri Sep  6 17:03:31 2019, MaxMem= 4294967296 cpu:       0.1
 (Enter /opt/g09gh/gaussian/g09/l703.exe)
 Compute integral first derivatives, UseDBF=F ICtDFT=           0.
 Integral derivatives from FoFDir, PRISM(SPDF).
 Calling FoFJK, ICntrl=      2127 FMM=F ISym2X=0 I1Cent= 0 IOpClX= 0 NMat=1 NMatS=1 NMatT=0.
 FoFCou: FMM=F IPFlag=           0 FMFlag=      100000 FMFlg1=         800
         NFxFlg=           0 DoJE=F BraDBF=F KetDBF=F FulRan=T
         Omega=  0.000000  0.000000  1.000000  0.000000  0.000000 ICntrl=    2127 IOpCl=  0
         NMat0=    1 NMatS0=    1 NMatT0=    0 NMatD0=    1 NMtDS0=    0 NMtDT0=    0
         I1Cent=           0 NGrid=           0.
 Symmetry not used in FoFCou.
 Leave Link  703 at Fri Sep  6 17:03:42 2019, MaxMem= 4294967296 cpu:      85.6
 (Enter /opt/g09gh/gaussian/g09/l716.exe)
 Dipole        = 9.16383089D-01 7.93362724D-01 3.60193882D-14
 Cartesian Forces:  Max     0.048087630 RMS     0.013419481
 Leave Link  716 at Fri Sep  6 17:03:42 2019, MaxMem= 4294967296 cpu:       0.4
 (Enter /opt/g09gh/gaussian/g09/l122.exe)
 Counterpoise: doing DCBS calculation for fragment   1 NewBq=T
 Leave Link  122 at Fri Sep  6 17:03:42 2019, MaxMem= 4294967296 cpu:       0.0
 (Enter /opt/g09gh/gaussian/g09/l301.exe)
 Basis read from rwf:  (5D, 7F)
 No pseudopotential information found on rwf file.
 Integral buffers will be    131072 words long.
 Raffenetti 1 integral format.
 Two-electron integral symmetry is turned off.
   250 basis functions,   397 primitive gaussians,   285 cartesian basis functions
    12 alpha electrons       12 beta electrons
       nuclear repulsion energy        69.3526772125 Hartrees.
 IExCor=    0 DFT=F Ex=HF Corr=None ExCW=0 ScaHFX=  1.000000
 ScaDFX=  1.000000  1.000000  1.000000  1.000000 ScalE2=  1.000000  1.000000
 IRadAn=      0 IRanWt=     -1 IRanGd=            0 ICorTp=0
 NAtoms=   11 NActive=   11 NUniq=   11 SFac= 7.50D-01 NAtFMM=   80 NAOKFM=F Big=F
 No density basis found on file   718.
 Leave Link  301 at Fri Sep  6 17:03:43 2019, MaxMem= 4294967296 cpu:       0.6
 (Enter /opt/g09gh/gaussian/g09/l302.exe)
 NPDir=0 NMtPBC=     1 NCelOv=     1 NCel=       1 NClECP=     1 NCelD=      1
         NCelK=      1 NCelE2=     1 NClLst=     1 CellRange=     0.0.
 One-electron integrals computed using PRISM.
 NBasis=   250 RedAO= T  NBF=   250
 NBsUse=   250 1.00D-06 NBFU=   250
 Leave Link  302 at Fri Sep  6 17:03:43 2019, MaxMem= 4294967296 cpu:       1.9
 (Enter /opt/g09gh/gaussian/g09/l303.exe)
 DipDrv:  MaxL=1.
 Leave Link  303 at Fri Sep  6 17:03:43 2019, MaxMem= 4294967296 cpu:       0.3
 (Enter /opt/g09gh/gaussian/g09/l401.exe)
 Harris functional with IExCor=  205 diagonalized for initial guess.
 ExpMin= 1.03D-01 ExpMax= 1.53D+04 ExpMxC= 5.22D+02 IAcc=1 IRadAn=         1 AccDes= 0.00D+00
 HarFok:  IExCor=  205 AccDes= 0.00D+00 IRadAn=         1 IDoV= 1
 ScaDFX=  1.000000  1.000000  1.000000  1.000000
 FoFCou: FMM=F IPFlag=           0 FMFlag=      100000 FMFlg1=           0
         NFxFlg=           0 DoJE=T BraDBF=F KetDBF=T FulRan=T
         Omega=  0.000000  0.000000  1.000000  0.000000  0.000000 ICntrl=     500 IOpCl=  0
         NMat0=    1 NMatS0=    1 NMatT0=    0 NMatD0=    1 NMtDS0=    0 NMtDT0=    0
         I1Cent=           4 NGrid=           0.
 Symmetry not used in FoFCou.
 Harris En= -188.953261954819    
 Leave Link  401 at Fri Sep  6 17:03:43 2019, MaxMem= 4294967296 cpu:       3.0
 (Enter /opt/g09gh/gaussian/g09/l502.exe)
 Closed shell SCF:
 Requested convergence on RMS density matrix=1.00D-08 within  64 cycles.
 Requested convergence on MAX density matrix=1.00D-06.
 Requested convergence on             energy=1.00D-06.
 No special actions if energy rises.
 Using DIIS extrapolation, IDIIS=  1040.
 Two-electron integral symmetry not used.
 Keep R1 ints in memory in canonical form, NReq=842455314.
 IEnd=      253225 IEndB=      253225 NGot=  4294967296 MDV=  3464294388
 LenX=  3464294388 LenY=  3464212722
 Symmetry not used in FoFDir.
 MinBra= 0 MaxBra= 3 Meth= 1.
 IRaf=       0 NMat=   1 IRICut=       1 DoRegI=T DoRafI=F ISym2E= 0 JSym2E=0.

 Cycle   1  Pass 1  IDiag  1:
 E= -188.700297065372    
 DIIS: error= 2.63D-02 at cycle   1 NSaved=   1.
 NSaved= 1 IEnMin= 1 EnMin= -188.700297065372     IErMin= 1 ErrMin= 2.63D-02
 ErrMax= 2.63D-02 EMaxC= 1.00D-01 BMatC= 3.43D-01 BMatP= 3.43D-01
 IDIUse=3 WtCom= 7.37D-01 WtEn= 2.63D-01
 Coeff-Com:  0.100D+01
 Coeff-En:   0.100D+01
 Coeff:      0.100D+01
 Gap=     0.569 Goal=   None    Shift=    0.000
 GapD=    0.569 DampG=2.000 DampE=0.500 DampFc=1.0000 IDamp=-1.
 RMSDP=1.12D-03 MaxDP=4.62D-02              OVMax= 1.39D-01

 Cycle   2  Pass 1  IDiag  1:
 E= -188.787181315364     Delta-E=       -0.086884249992 Rises=F Damp=F
 DIIS: error= 1.37D-02 at cycle   2 NSaved=   2.
 NSaved= 2 IEnMin= 2 EnMin= -188.787181315364     IErMin= 2 ErrMin= 1.37D-02
 ErrMax= 1.37D-02 EMaxC= 1.00D-01 BMatC= 6.04D-02 BMatP= 3.43D-01
 IDIUse=3 WtCom= 8.63D-01 WtEn= 1.37D-01
 Coeff-Com:  0.230D+00 0.770D+00
 Coeff-En:   0.000D+00 0.100D+01
 Coeff:      0.199D+00 0.801D+00
 Gap=     0.582 Goal=   None    Shift=    0.000
 RMSDP=6.24D-04 MaxDP=2.77D-02 DE=-8.69D-02 OVMax= 6.30D-02

 Cycle   3  Pass 1  IDiag  1:
 E= -188.818690838003     Delta-E=       -0.031509522639 Rises=F Damp=F
 DIIS: error= 7.58D-03 at cycle   3 NSaved=   3.
 NSaved= 3 IEnMin= 3 EnMin= -188.818690838003     IErMin= 3 ErrMin= 7.58D-03
 ErrMax= 7.58D-03 EMaxC= 1.00D-01 BMatC= 1.08D-02 BMatP= 6.04D-02
 IDIUse=3 WtCom= 9.24D-01 WtEn= 7.58D-02
 Coeff-Com: -0.237D-01 0.276D+00 0.748D+00
 Coeff-En:   0.000D+00 0.000D+00 0.100D+01
 Coeff:     -0.219D-01 0.255D+00 0.767D+00
 Gap=     0.543 Goal=   None    Shift=    0.000
 RMSDP=1.79D-04 MaxDP=9.74D-03 DE=-3.15D-02 OVMax= 3.24D-02

 Cycle   4  Pass 1  IDiag  1:
 E= -188.825384140646     Delta-E=       -0.006693302643 Rises=F Damp=F
 DIIS: error= 9.48D-04 at cycle   4 NSaved=   4.
 NSaved= 4 IEnMin= 4 EnMin= -188.825384140646     IErMin= 4 ErrMin= 9.48D-04
 ErrMax= 9.48D-04 EMaxC= 1.00D-01 BMatC= 3.46D-04 BMatP= 1.08D-02
 IDIUse=3 WtCom= 9.91D-01 WtEn= 9.48D-03
 Coeff-Com: -0.126D-01 0.606D-01 0.246D+00 0.706D+00
 Coeff-En:   0.000D+00 0.000D+00 0.000D+00 0.100D+01
 Coeff:     -0.125D-01 0.600D-01 0.244D+00 0.709D+00
 Gap=     0.542 Goal=   None    Shift=    0.000
 RMSDP=4.06D-05 MaxDP=1.48D-03 DE=-6.69D-03 OVMax= 4.59D-03

 Cycle   5  Pass 1  IDiag  1:
 E= -188.825666892388     Delta-E=       -0.000282751742 Rises=F Damp=F
 DIIS: error= 5.90D-04 at cycle   5 NSaved=   5.
 NSaved= 5 IEnMin= 5 EnMin= -188.825666892388     IErMin= 5 ErrMin= 5.90D-04
 ErrMax= 5.90D-04 EMaxC= 1.00D-01 BMatC= 2.29D-05 BMatP= 3.46D-04
 IDIUse=3 WtCom= 9.94D-01 WtEn= 5.90D-03
 Coeff-Com:  0.263D-02-0.274D-01-0.829D-01-0.872D-04 0.111D+01
 Coeff-En:   0.000D+00 0.000D+00 0.000D+00 0.000D+00 0.100D+01
 Coeff:      0.262D-02-0.273D-01-0.824D-01-0.866D-04 0.111D+01
 Gap=     0.542 Goal=   None    Shift=    0.000
 RMSDP=2.26D-05 MaxDP=9.45D-04 DE=-2.83D-04 OVMax= 3.79D-03

 Cycle   6  Pass 1  IDiag  1:
 E= -188.825718585161     Delta-E=       -0.000051692773 Rises=F Damp=F
 DIIS: error= 1.16D-04 at cycle   6 NSaved=   6.
 NSaved= 6 IEnMin= 6 EnMin= -188.825718585161     IErMin= 6 ErrMin= 1.16D-04
 ErrMax= 1.16D-04 EMaxC= 1.00D-01 BMatC= 4.45D-06 BMatP= 2.29D-05
 IDIUse=3 WtCom= 9.99D-01 WtEn= 1.16D-03
 Coeff-Com:  0.198D-02-0.133D-01-0.456D-01-0.109D+00 0.194D+00 0.972D+00
 Coeff-En:   0.000D+00 0.000D+00 0.000D+00 0.000D+00 0.000D+00 0.100D+01
 Coeff:      0.198D-02-0.133D-01-0.455D-01-0.109D+00 0.194D+00 0.972D+00
 Gap=     0.543 Goal=   None    Shift=    0.000
 RMSDP=1.04D-05 MaxDP=3.17D-04 DE=-5.17D-05 OVMax= 1.46D-03

 Cycle   7  Pass 1  IDiag  1:
 E= -188.825728108556     Delta-E=       -0.000009523394 Rises=F Damp=F
 DIIS: error= 5.91D-05 at cycle   7 NSaved=   7.
 NSaved= 7 IEnMin= 7 EnMin= -188.825728108556     IErMin= 7 ErrMin= 5.91D-05
 ErrMax= 5.91D-05 EMaxC= 1.00D-01 BMatC= 5.75D-07 BMatP= 4.45D-06
 IDIUse=1 WtCom= 1.00D+00 WtEn= 0.00D+00
 Coeff-Com: -0.563D-03 0.525D-02 0.202D-01 0.587D-02-0.171D+00-0.132D+00
 Coeff-Com:  0.127D+01
 Coeff:     -0.563D-03 0.525D-02 0.202D-01 0.587D-02-0.171D+00-0.132D+00
 Coeff:      0.127D+01
 Gap=     0.543 Goal=   None    Shift=    0.000
 RMSDP=4.71D-06 MaxDP=1.77D-04 DE=-9.52D-06 OVMax= 8.43D-04

 Cycle   8  Pass 1  IDiag  1:
 E= -188.825729778606     Delta-E=       -0.000001670050 Rises=F Damp=F
 DIIS: error= 1.81D-05 at cycle   8 NSaved=   8.
 NSaved= 8 IEnMin= 8 EnMin= -188.825729778606     IErMin= 8 ErrMin= 1.81D-05
 ErrMax= 1.81D-05 EMaxC= 1.00D-01 BMatC= 4.60D-08 BMatP= 5.75D-07
 IDIUse=1 WtCom= 1.00D+00 WtEn= 0.00D+00
 Coeff-Com: -0.535D-04 0.152D-04-0.362D-03 0.453D-02 0.237D-01-0.292D-01
 Coeff-Com: -0.385D+00 0.139D+01
 Coeff:     -0.535D-04 0.152D-04-0.362D-03 0.453D-02 0.237D-01-0.292D-01
 Coeff:     -0.385D+00 0.139D+01
 Gap=     0.544 Goal=   None    Shift=    0.000
 RMSDP=1.62D-06 MaxDP=6.88D-05 DE=-1.67D-06 OVMax= 3.20D-04

 Cycle   9  Pass 1  IDiag  1:
 E= -188.825729950594     Delta-E=       -0.000000171988 Rises=F Damp=F
 DIIS: error= 5.46D-06 at cycle   9 NSaved=   9.
 NSaved= 9 IEnMin= 9 EnMin= -188.825729950594     IErMin= 9 ErrMin= 5.46D-06
 ErrMax= 5.46D-06 EMaxC= 1.00D-01 BMatC= 4.51D-09 BMatP= 4.60D-08
 IDIUse=1 WtCom= 1.00D+00 WtEn= 0.00D+00
 Coeff-Com:  0.624D-04-0.498D-03-0.152D-02-0.306D-02 0.102D-01 0.231D-01
 Coeff-Com: -0.709D-02-0.407D+00 0.139D+01
 Coeff:      0.624D-04-0.498D-03-0.152D-02-0.306D-02 0.102D-01 0.231D-01
 Coeff:     -0.709D-02-0.407D+00 0.139D+01
 Gap=     0.544 Goal=   None    Shift=    0.000
 RMSDP=4.42D-07 MaxDP=2.06D-05 DE=-1.72D-07 OVMax= 7.73D-05

 Cycle  10  Pass 1  IDiag  1:
 E= -188.825729963711     Delta-E=       -0.000000013118 Rises=F Damp=F
 DIIS: error= 1.39D-06 at cycle  10 NSaved=  10.
 NSaved=10 IEnMin=10 EnMin= -188.825729963711     IErMin=10 ErrMin= 1.39D-06
 ErrMax= 1.39D-06 EMaxC= 1.00D-01 BMatC= 2.57D-10 BMatP= 4.51D-09
 IDIUse=1 WtCom= 1.00D+00 WtEn= 0.00D+00
 Coeff-Com: -0.354D-05 0.537D-04 0.301D-03-0.191D-03-0.370D-02-0.764D-03
 Coeff-Com:  0.391D-01-0.737D-01-0.165D+00 0.120D+01
 Coeff:     -0.354D-05 0.537D-04 0.301D-03-0.191D-03-0.370D-02-0.764D-03
 Coeff:      0.391D-01-0.737D-01-0.165D+00 0.120D+01
 Gap=     0.544 Goal=   None    Shift=    0.000
 RMSDP=9.17D-08 MaxDP=4.06D-06 DE=-1.31D-08 OVMax= 1.29D-05

 Cycle  11  Pass 1  IDiag  1:
 E= -188.825729964276     Delta-E=       -0.000000000565 Rises=F Damp=F
 DIIS: error= 2.30D-07 at cycle  11 NSaved=  11.
 NSaved=11 IEnMin=11 EnMin= -188.825729964276     IErMin=11 ErrMin= 2.30D-07
 ErrMax= 2.30D-07 EMaxC= 1.00D-01 BMatC= 7.34D-12 BMatP= 2.57D-10
 IDIUse=1 WtCom= 1.00D+00 WtEn= 0.00D+00
 Coeff-Com: -0.194D-05 0.131D-04 0.104D-04 0.157D-03 0.147D-03-0.262D-03
 Coeff-Com: -0.819D-02 0.322D-01-0.222D-01-0.266D+00 0.126D+01
 Coeff:     -0.194D-05 0.131D-04 0.104D-04 0.157D-03 0.147D-03-0.262D-03
 Coeff:     -0.819D-02 0.322D-01-0.222D-01-0.266D+00 0.126D+01
 Gap=     0.544 Goal=   None    Shift=    0.000
 RMSDP=1.70D-08 MaxDP=6.52D-07 DE=-5.65D-10 OVMax= 1.91D-06

 Cycle  12  Pass 1  IDiag  1:
 E= -188.825729964294     Delta-E=       -0.000000000017 Rises=F Damp=F
 DIIS: error= 3.39D-08 at cycle  12 NSaved=  12.
 NSaved=12 IEnMin=12 EnMin= -188.825729964294     IErMin=12 ErrMin= 3.39D-08
 ErrMax= 3.39D-08 EMaxC= 1.00D-01 BMatC= 2.79D-13 BMatP= 7.34D-12
 IDIUse=1 WtCom= 1.00D+00 WtEn= 0.00D+00
 Coeff-Com:  0.451D-06-0.407D-05-0.833D-05-0.418D-04 0.637D-04 0.134D-03
 Coeff-Com:  0.827D-03-0.572D-02 0.102D-01 0.273D-01-0.314D+00 0.128D+01
 Coeff:      0.451D-06-0.407D-05-0.833D-05-0.418D-04 0.637D-04 0.134D-03
 Coeff:      0.827D-03-0.572D-02 0.102D-01 0.273D-01-0.314D+00 0.128D+01
 Gap=     0.544 Goal=   None    Shift=    0.000
 RMSDP=3.24D-09 MaxDP=1.08D-07 DE=-1.75D-11 OVMax= 3.29D-07

 SCF Done:  E(RHF) =  -188.825729964     A.U. after   12 cycles
             Convg  =    0.3244D-08             -V/T =  2.0025
 KE= 1.883587672037D+02 PE=-5.847829354371D+02 EE= 1.382457610566D+02
 Leave Link  502 at Fri Sep  6 17:04:27 2019, MaxMem= 4294967296 cpu:     351.5
 (Enter /opt/g09gh/gaussian/g09/l801.exe)
 ExpMin= 1.03D-01 ExpMax= 1.53D+04 ExpMxC= 5.22D+02 IAcc=1 IRadAn=         1 AccDes= 0.00D+00
 HarFok:  IExCor=  205 AccDes= 0.00D+00 IRadAn=         1 IDoV=-2
 ScaDFX=  1.000000  1.000000  1.000000  1.000000
 Largest valence mixing into a core orbital is  2.19D-04
 Largest core mixing into a valence orbital is  2.59D-05
 Range of M.O.s used for correlation:     4   250
 NBasis=   250 NAE=    12 NBE=    12 NFC=     3 NFV=     0
 NROrb=    247 NOA=     9 NOB=     9 NVA=   238 NVB=   238
 Leave Link  801 at Fri Sep  6 17:04:28 2019, MaxMem= 4294967296 cpu:       0.4
 (Enter /opt/g09gh/gaussian/g09/l906.exe)
 Frozen-core derivative calculation, NFC=   3 NFV=   0.
 FulOut=F Deriv=T AODrv=T NAtomX=    11
   MMem=         378  MDisk=           9 MDiskD=           9
  W3Min=      855000 MinDsk=     1718675 NBas6D=         285
 NBas2D=       41364    NTT=       40755    LW2=     3500000
    MDV=  4294223811 MDiskM=       75302 NBas2p=       39717
 Fully direct method using O(ONN) memory.
 IMap=   1   2   3   4   5   6   7   8   9  10  11  12
 JobTyp=1 Pass  1:  I=   4 to  12 NPSUse=  8 ParTrn=T ParDer=T DoDerP=T.
 Spin components of T(2) and E(2):
     alpha-alpha T2 =       0.2212909721D-01 E2=     -0.8174766760D-01
     alpha-beta  T2 =       0.1211841539D+00 E2=     -0.4736502705D+00
     beta-beta   T2 =       0.2212909721D-01 E2=     -0.8174766760D-01
 The integrals were generated   1 times.
 ANorm=    0.1079556552D+01
 E2 =    -0.6371456057D+00 EUMP2 =    -0.18946287557000D+03
 Leave Link  906 at Fri Sep  6 17:05:06 2019, MaxMem= 4294967296 cpu:     305.8
 (Enter /opt/g09gh/gaussian/g09/l1002.exe)
 Minotr:  Closed shell wavefunction.
          Computing MP2/KS-MP2 derivatives.
          Using Z-Vector for PSCF gradient.
          Skipping F1 and S1 gradient terms here.
          IDoAtm=11111111111
          Frozen-core window.
          Direct CPHF calculation.
          Differentiating once with respect to electric field.
                with respect to dipole field.
          Differentiating once with respect to nuclear coordinates.
          Requested convergence is 1.0D-10 RMS, and 1.0D-09 maximum.
          NewPWx=F KeepS1=T KeepF1=T KeepIn=T MapXYZ=F SortEE=F KeepMc=T.
          MDV=    4294967182 using IRadAn=       0.
          Keep R1 ints in memory in canonical form, NReq=832447090.
 Symmetry not used in FoFDir.
 MinBra= 0 MaxBra= 3 Meth= 1.
 IRaf=       0 NMat=   1 IRICut=       1 DoRegI=T DoRafI=F ISym2E= 0 JSym2E=0.
          Solving linear equations separately, MaxMat=       0.
          There are     1 degrees of freedom in the 1st order CPHF.  IDoFFX=0.
 LinEq1:  Iter=  0 NonCon=     1 RMS=4.36D-03 Max=1.39D-01
 AX will form     1 AO Fock derivatives at one time.
 LinEq1:  Iter=  1 NonCon=     1 RMS=1.15D-03 Max=2.19D-02
 LinEq1:  Iter=  2 NonCon=     1 RMS=4.41D-04 Max=5.57D-03
 LinEq1:  Iter=  3 NonCon=     1 RMS=2.00D-04 Max=3.51D-03
 LinEq1:  Iter=  4 NonCon=     1 RMS=4.67D-05 Max=6.10D-04
 LinEq1:  Iter=  5 NonCon=     1 RMS=1.67D-05 Max=2.99D-04
 LinEq1:  Iter=  6 NonCon=     1 RMS=5.17D-06 Max=9.29D-05
 LinEq1:  Iter=  7 NonCon=     1 RMS=1.07D-06 Max=2.53D-05
 LinEq1:  Iter=  8 NonCon=     1 RMS=2.20D-07 Max=3.83D-06
 LinEq1:  Iter=  9 NonCon=     1 RMS=3.84D-08 Max=4.13D-07
 LinEq1:  Iter= 10 NonCon=     1 RMS=8.14D-09 Max=9.42D-08
 LinEq1:  Iter= 11 NonCon=     1 RMS=1.48D-09 Max=1.37D-08
 LinEq1:  Iter= 12 NonCon=     1 RMS=1.98D-10 Max=1.87D-09
 LinEq1:  Iter= 13 NonCon=     0 RMS=3.00D-11 Max=3.52D-10
 Linear equations converged to 1.000D-10 1.000D-09 after    13 iterations.
 End of Minotr Frequency-dependent properties file   721 does not exist.
 End of Minotr Frequency-dependent properties file   722 does not exist.
 Leave Link 1002 at Fri Sep  6 17:05:55 2019, MaxMem= 4294967296 cpu:     389.4
 (Enter /opt/g09gh/gaussian/g09/l601.exe)
 Copying SCF densities to generalized density rwf, IOpCl= 0 IROHF=0.

 **********************************************************************

            Population analysis using the SCF density.

 **********************************************************************

 Alpha  occ. eigenvalues --  -20.65099 -20.55778 -11.39666  -1.48095  -1.36556
 Alpha  occ. eigenvalues --   -0.89392  -0.72705  -0.70888  -0.64813  -0.58778
 Alpha  occ. eigenvalues --   -0.48852  -0.46010
 Alpha virt. eigenvalues --    0.08349   0.14146   0.16454   0.17323   0.18510
 Alpha virt. eigenvalues --    0.25401   0.26147   0.29880   0.30563   0.34795
 Alpha virt. eigenvalues --    0.37293   0.38505   0.43094   0.46166   0.47981
 Alpha virt. eigenvalues --    0.50941   0.57527   0.58129   0.58436   0.60304
 Alpha virt. eigenvalues --    0.63275   0.64214   0.68230   0.70094   0.72221
 Alpha virt. eigenvalues --    0.75955   0.76352   0.78980   0.83157   0.86547
 Alpha virt. eigenvalues --    0.89049   0.91550   0.93179   0.94795   0.98284
 Alpha virt. eigenvalues --    0.99947   1.00619   1.04662   1.06608   1.10164
 Alpha virt. eigenvalues --    1.12172   1.14467   1.19660   1.20872   1.21403
 Alpha virt. eigenvalues --    1.23591   1.25670   1.27319   1.33259   1.33289
 Alpha virt. eigenvalues --    1.35731   1.38525   1.39716   1.43354   1.44322
 Alpha virt. eigenvalues --    1.46196   1.50821   1.56495   1.58499   1.67792
 Alpha virt. eigenvalues --    1.71642   1.73857   1.78395   1.80602   1.82760
 Alpha virt. eigenvalues --    1.95228   1.99784   2.01659   2.06316   2.07661
 Alpha virt. eigenvalues --    2.11395   2.15659   2.17061   2.19874   2.20948
 Alpha virt. eigenvalues --    2.30491   2.35027   2.35102   2.39171   2.41526
 Alpha virt. eigenvalues --    2.41923   2.44103   2.48391   2.53222   2.59494
 Alpha virt. eigenvalues --    2.60714   2.68690   2.75561   2.77861   2.79452
 Alpha virt. eigenvalues --    2.83716   2.87432   2.91488   2.94612   2.96120
 Alpha virt. eigenvalues --    2.98721   3.05874   3.14614   3.21748   3.25148
 Alpha virt. eigenvalues --    3.29627   3.30221   3.32780   3.37387   3.46617
 Alpha virt. eigenvalues --    3.52263   3.53462   3.58706   3.58953   3.60604
 Alpha virt. eigenvalues --    3.63201   3.64135   3.70436   3.72440   3.75359
 Alpha virt. eigenvalues --    3.80831   3.81717   3.86021   3.90356   3.93164
 Alpha virt. eigenvalues --    3.95043   3.99607   4.01713   4.03033   4.10649
 Alpha virt. eigenvalues --    4.12817   4.17114   4.18515   4.21807   4.28217
 Alpha virt. eigenvalues --    4.29797   4.31099   4.34067   4.37982   4.41095
 Alpha virt. eigenvalues --    4.45930   4.48740   4.49489   4.51753   4.52562
 Alpha virt. eigenvalues --    4.56504   4.60730   4.60924   4.63864   4.64852
 Alpha virt. eigenvalues --    4.68874   4.71558   4.72342   4.79447   4.79753
 Alpha virt. eigenvalues --    4.83200   4.89989   4.94203   4.97108   5.02030
 Alpha virt. eigenvalues --    5.02749   5.03983   5.05683   5.12910   5.22357
 Alpha virt. eigenvalues --    5.34065   5.36438   5.40579   5.54189   5.62444
 Alpha virt. eigenvalues --    5.62542   5.66547   5.70863   5.72258   5.78210
 Alpha virt. eigenvalues --    5.83687   5.84638   5.88002   5.97325   5.98097
 Alpha virt. eigenvalues --    6.06371   6.08561   6.20733   6.22390   6.33036
 Alpha virt. eigenvalues --    6.36157   6.41283   6.43083   6.49174   6.56050
 Alpha virt. eigenvalues --    6.56113   6.64776   6.68104   6.70389   6.76572
 Alpha virt. eigenvalues --    6.84608   6.90148   6.90664   7.00416   7.04595
 Alpha virt. eigenvalues --    7.06326   7.12946   7.21018   7.22878   7.26287
 Alpha virt. eigenvalues --    7.27482   7.29079   7.39267   7.44177   7.46019
 Alpha virt. eigenvalues --    7.52539   7.55826   7.66026   7.72006   7.72548
 Alpha virt. eigenvalues --    7.78524   7.89080   8.03918   8.12481   8.27198
 Alpha virt. eigenvalues --    8.45502   8.49806   8.87896   8.98892   9.12792
 Alpha virt. eigenvalues --    9.33088   9.52634   9.75323   9.80870  10.20036
 Alpha virt. eigenvalues --   10.44276  10.56633  10.70305  10.98886  11.30942
 Alpha virt. eigenvalues --   11.31413  12.04880  12.68114  13.56807  13.97998
 Alpha virt. eigenvalues --   39.67635  53.26252  58.78541
          Condensed to atoms (all electrons):
              1          2          3          4          5          6
     1  C    4.252824   0.419057   0.658652   0.394666  -0.030284   0.001734
     2  H    0.419057   0.574120  -0.055588  -0.061504   0.005802   0.000545
     3  O    0.658652  -0.055588   7.806799  -0.065645  -0.001399   0.009767
     4  O    0.394666  -0.061504  -0.065645   7.696589   0.333490   0.002638
     5  H   -0.030284   0.005802  -0.001399   0.333490   0.388406   0.008622
     6  C    0.001734   0.000545   0.009767   0.002638   0.008622   0.008661
     7  H   -0.000010   0.000010   0.000307   0.000108   0.000401   0.000063
     8  O   -0.000078  -0.000020  -0.000991  -0.002047  -0.003717  -0.002603
     9  N    0.000347  -0.000108  -0.008062  -0.000920  -0.001065  -0.002502
    10  H   -0.007060   0.001448   0.037984  -0.000659   0.001108   0.000615
    11  H    0.000005  -0.000002  -0.000116  -0.000012  -0.000011   0.000040
              7          8          9         10         11
     1  C   -0.000010  -0.000078   0.000347  -0.007060   0.000005
     2  H    0.000010  -0.000020  -0.000108   0.001448  -0.000002
     3  O    0.000307  -0.000991  -0.008062   0.037984  -0.000116
     4  O    0.000108  -0.002047  -0.000920  -0.000659  -0.000012
     5  H    0.000401  -0.003717  -0.001065   0.001108  -0.000011
     6  C    0.000063  -0.002603  -0.002502   0.000615   0.000040
     7  H    0.001632  -0.000702  -0.000583   0.000212  -0.000038
     8  O   -0.000702   0.001833   0.000610  -0.000190   0.000015
     9  N   -0.000583   0.000610   0.003366  -0.002773  -0.000355
    10  H    0.000212  -0.000190  -0.002773   0.006828   0.000096
    11  H   -0.000038   0.000015  -0.000355   0.000096   0.000351
 Mulliken atomic charges:
              1
     1  C    0.310148
     2  H    0.116239
     3  O   -0.381707
     4  O   -0.296704
     5  H    0.298648
     6  C   -0.027580
     7  H   -0.001400
     8  O    0.007892
     9  N    0.012046
    10  H   -0.037608
    11  H    0.000027
 Sum of Mulliken atomic charges =   0.00000
 Mulliken charges with hydrogens summed into heavy atoms:
              1
     1  C    0.426387
     3  O   -0.381707
     4  O    0.001944
     6  C   -0.028980
     8  O    0.007892
     9  N   -0.025535
 Sum of Mulliken charges with hydrogens summed into heavy atoms =   0.00000
          Condensed to fragments (all electrons):
     1       0.046624
     2      -0.046624
 Electronic spatial extent (au):  <R**2>=            295.5589
 Charge=              0.0000 electrons
 Dipole moment (field-independent basis, Debye):
    X=             -0.1484    Y=             -2.4222    Z=              0.0000  Tot=              2.4268
 Quadrupole moment (field-independent basis, Debye-Ang):
   XX=            -13.9060   YY=            -21.0511   ZZ=            -16.9661
   XY=             -0.7639   XZ=              0.0000   YZ=              0.0000
 Traceless Quadrupole moment (field-independent basis, Debye-Ang):
   XX=              3.4018   YY=             -3.7434   ZZ=              0.3416
   XY=             -0.7639   XZ=              0.0000   YZ=              0.0000
 Octapole moment (field-independent basis, Debye-Ang**2):
  XXX=             58.4458  YYY=            -10.8778  ZZZ=              0.0000  XYY=             30.9520
  XXY=              1.7485  XXZ=              0.0000  XZZ=             23.2973  YZZ=             -1.7511
  YYZ=              0.0000  XYZ=              0.0000
 Hexadecapole moment (field-independent basis, Debye-Ang**3):
 XXXX=           -190.0903 YYYY=           -114.9161 ZZZZ=            -13.7462 XXXY=             -5.5328
 XXXZ=              0.0000 YYYX=              5.3870 YYYZ=              0.0000 ZZZX=              0.0000
 ZZZY=              0.0000 XXYY=            -66.1228 XXZZ=            -39.9372 YYZZ=            -21.0547
 XXYZ=              0.0000 YYXZ=              0.0000 ZZXY=              0.9432
 N-N= 6.935267721252D+01 E-N=-5.847829350448D+02  KE= 1.883587672037D+02
 No NMR shielding tensors so no spin-rotation constants.
 Leave Link  601 at Fri Sep  6 17:05:55 2019, MaxMem= 4294967296 cpu:       1.7
 (Enter /opt/g09gh/gaussian/g09/l701.exe)
 Compute integral first derivatives.
 ... and contract with generalized density number  2.
 Leave Link  701 at Fri Sep  6 17:05:55 2019, MaxMem= 4294967296 cpu:       1.8
 (Enter /opt/g09gh/gaussian/g09/l702.exe)
 L702 exits ... SP integral derivatives will be done elsewhere.
 Leave Link  702 at Fri Sep  6 17:05:56 2019, MaxMem= 4294967296 cpu:       0.1
 (Enter /opt/g09gh/gaussian/g09/l703.exe)
 Compute integral first derivatives, UseDBF=F ICtDFT=           0.
 Integral derivatives from FoFDir, PRISM(SPDF).
 Calling FoFJK, ICntrl=      2127 FMM=F ISym2X=0 I1Cent= 0 IOpClX= 0 NMat=1 NMatS=1 NMatT=0.
 FoFCou: FMM=F IPFlag=           0 FMFlag=      100000 FMFlg1=         800
         NFxFlg=           0 DoJE=F BraDBF=F KetDBF=F FulRan=T
         Omega=  0.000000  0.000000  1.000000  0.000000  0.000000 ICntrl=    2127 IOpCl=  0
         NMat0=    1 NMatS0=    1 NMatT0=    0 NMatD0=    1 NMtDS0=    0 NMtDT0=    0
         I1Cent=           0 NGrid=           0.
 Symmetry not used in FoFCou.
 Leave Link  703 at Fri Sep  6 17:06:05 2019, MaxMem= 4294967296 cpu:      75.9
 (Enter /opt/g09gh/gaussian/g09/l716.exe)
 Dipole        = 1.02194750D-02-8.24803238D-01-2.24197586D-15
 Cartesian Forces:  Max     0.077251078 RMS     0.022874110
 Leave Link  716 at Fri Sep  6 17:06:05 2019, MaxMem= 4294967296 cpu:       0.3
 (Enter /opt/g09gh/gaussian/g09/l122.exe)
 Counterpoise: doing DCBS calculation for fragment   2 NewBq=T
 Leave Link  122 at Fri Sep  6 17:06:05 2019, MaxMem= 4294967296 cpu:       0.0
 (Enter /opt/g09gh/gaussian/g09/l301.exe)
 Basis read from rwf:  (5D, 7F)
 No pseudopotential information found on rwf file.
 Integral buffers will be    131072 words long.
 Raffenetti 1 integral format.
 Two-electron integral symmetry is turned off.
   250 basis functions,   397 primitive gaussians,   285 cartesian basis functions
    12 alpha electrons       12 beta electrons
       nuclear repulsion energy        70.2501895120 Hartrees.
 IExCor=    0 DFT=F Ex=HF Corr=None ExCW=0 ScaHFX=  1.000000
 ScaDFX=  1.000000  1.000000  1.000000  1.000000 ScalE2=  1.000000  1.000000
 IRadAn=      0 IRanWt=     -1 IRanGd=            0 ICorTp=0
 NAtoms=   11 NActive=   11 NUniq=   11 SFac= 7.50D-01 NAtFMM=   80 NAOKFM=F Big=F
 No density basis found on file   718.
 Leave Link  301 at Fri Sep  6 17:06:05 2019, MaxMem= 4294967296 cpu:       0.6
 (Enter /opt/g09gh/gaussian/g09/l302.exe)
 NPDir=0 NMtPBC=     1 NCelOv=     1 NCel=       1 NClECP=     1 NCelD=      1
         NCelK=      1 NCelE2=     1 NClLst=     1 CellRange=     0.0.
 One-electron integrals computed using PRISM.
 NBasis=   250 RedAO= T  NBF=   250
 NBsUse=   250 1.00D-06 NBFU=   250
 Leave Link  302 at Fri Sep  6 17:06:06 2019, MaxMem= 4294967296 cpu:       1.8
 (Enter /opt/g09gh/gaussian/g09/l303.exe)
 DipDrv:  MaxL=1.
 Leave Link  303 at Fri Sep  6 17:06:06 2019, MaxMem= 4294967296 cpu:       0.3
 (Enter /opt/g09gh/gaussian/g09/l401.exe)
 Harris functional with IExCor=  205 diagonalized for initial guess.
 ExpMin= 1.03D-01 ExpMax= 1.53D+04 ExpMxC= 5.22D+02 IAcc=1 IRadAn=         1 AccDes= 0.00D+00
 HarFok:  IExCor=  205 AccDes= 0.00D+00 IRadAn=         1 IDoV= 1
 ScaDFX=  1.000000  1.000000  1.000000  1.000000
 FoFCou: FMM=F IPFlag=           0 FMFlag=      100000 FMFlg1=           0
         NFxFlg=           0 DoJE=T BraDBF=F KetDBF=T FulRan=T
         Omega=  0.000000  0.000000  1.000000  0.000000  0.000000 ICntrl=     500 IOpCl=  0
         NMat0=    1 NMatS0=    1 NMatT0=    0 NMatD0=    1 NMtDS0=    0 NMtDT0=    0
         I1Cent=           4 NGrid=           0.
 Symmetry not used in FoFCou.
 Harris En= -169.175613673902    
 Leave Link  401 at Fri Sep  6 17:06:06 2019, MaxMem= 4294967296 cpu:       3.0
 (Enter /opt/g09gh/gaussian/g09/l502.exe)
 Closed shell SCF:
 Requested convergence on RMS density matrix=1.00D-08 within  64 cycles.
 Requested convergence on MAX density matrix=1.00D-06.
 Requested convergence on             energy=1.00D-06.
 No special actions if energy rises.
 Using DIIS extrapolation, IDIIS=  1040.
 Two-electron integral symmetry not used.
 Keep R1 ints in memory in canonical form, NReq=842455314.
 IEnd=      253225 IEndB=      253225 NGot=  4294967296 MDV=  3464294388
 LenX=  3464294388 LenY=  3464212722
 Symmetry not used in FoFDir.
 MinBra= 0 MaxBra= 3 Meth= 1.
 IRaf=       0 NMat=   1 IRICut=       1 DoRegI=T DoRafI=F ISym2E= 0 JSym2E=0.

 Cycle   1  Pass 1  IDiag  1:
 E= -168.837310297631    
 DIIS: error= 2.99D-02 at cycle   1 NSaved=   1.
 NSaved= 1 IEnMin= 1 EnMin= -168.837310297631     IErMin= 1 ErrMin= 2.99D-02
 ErrMax= 2.99D-02 EMaxC= 1.00D-01 BMatC= 3.46D-01 BMatP= 3.46D-01
 IDIUse=3 WtCom= 7.01D-01 WtEn= 2.99D-01
 Coeff-Com:  0.100D+01
 Coeff-En:   0.100D+01
 Coeff:      0.100D+01
 Gap=     0.570 Goal=   None    Shift=    0.000
 GapD=    0.570 DampG=2.000 DampE=0.500 DampFc=1.0000 IDamp=-1.
 RMSDP=1.66D-03 MaxDP=1.06D-01              OVMax= 1.41D-01

 Cycle   2  Pass 1  IDiag  1:
 E= -168.949784732924     Delta-E=       -0.112474435293 Rises=F Damp=F
 DIIS: error= 1.12D-02 at cycle   2 NSaved=   2.
 NSaved= 2 IEnMin= 2 EnMin= -168.949784732924     IErMin= 2 ErrMin= 1.12D-02
 ErrMax= 1.12D-02 EMaxC= 1.00D-01 BMatC= 5.97D-02 BMatP= 3.46D-01
 IDIUse=3 WtCom= 8.88D-01 WtEn= 1.12D-01
 Coeff-Com:  0.233D+00 0.767D+00
 Coeff-En:   0.000D+00 0.100D+01
 Coeff:      0.207D+00 0.793D+00
 Gap=     0.566 Goal=   None    Shift=    0.000
 RMSDP=8.77D-04 MaxDP=6.29D-02 DE=-1.12D-01 OVMax= 6.45D-02

 Cycle   3  Pass 1  IDiag  1:
 E= -168.983895978511     Delta-E=       -0.034111245587 Rises=F Damp=F
 DIIS: error= 5.62D-03 at cycle   3 NSaved=   3.
 NSaved= 3 IEnMin= 3 EnMin= -168.983895978511     IErMin= 3 ErrMin= 5.62D-03
 ErrMax= 5.62D-03 EMaxC= 1.00D-01 BMatC= 8.52D-03 BMatP= 5.97D-02
 IDIUse=3 WtCom= 9.44D-01 WtEn= 5.62D-02
 Coeff-Com: -0.175D-01 0.249D+00 0.768D+00
 Coeff-En:   0.000D+00 0.000D+00 0.100D+01
 Coeff:     -0.165D-01 0.235D+00 0.781D+00
 Gap=     0.534 Goal=   None    Shift=    0.000
 RMSDP=1.84D-04 MaxDP=8.78D-03 DE=-3.41D-02 OVMax= 2.83D-02

 Cycle   4  Pass 1  IDiag  1:
 E= -168.989106420518     Delta-E=       -0.005210442007 Rises=F Damp=F
 DIIS: error= 1.20D-03 at cycle   4 NSaved=   4.
 NSaved= 4 IEnMin= 4 EnMin= -168.989106420518     IErMin= 4 ErrMin= 1.20D-03
 ErrMax= 1.20D-03 EMaxC= 1.00D-01 BMatC= 4.17D-04 BMatP= 8.52D-03
 IDIUse=3 WtCom= 9.88D-01 WtEn= 1.20D-02
 Coeff-Com: -0.131D-01 0.536D-01 0.265D+00 0.695D+00
 Coeff-En:   0.000D+00 0.000D+00 0.000D+00 0.100D+01
 Coeff:     -0.130D-01 0.529D-01 0.261D+00 0.699D+00
 Gap=     0.528 Goal=   None    Shift=    0.000
 RMSDP=5.17D-05 MaxDP=2.04D-03 DE=-5.21D-03 OVMax= 4.92D-03

 Cycle   5  Pass 1  IDiag  1:
 E= -168.989462455558     Delta-E=       -0.000356035040 Rises=F Damp=F
 DIIS: error= 3.20D-04 at cycle   5 NSaved=   5.
 NSaved= 5 IEnMin= 5 EnMin= -168.989462455558     IErMin= 5 ErrMin= 3.20D-04
 ErrMax= 3.20D-04 EMaxC= 1.00D-01 BMatC= 1.89D-05 BMatP= 4.17D-04
 IDIUse=3 WtCom= 9.97D-01 WtEn= 3.20D-03
 Coeff-Com:  0.316D-02-0.244D-01-0.103D+00-0.839D-01 0.121D+01
 Coeff-En:   0.000D+00 0.000D+00 0.000D+00 0.000D+00 0.100D+01
 Coeff:      0.315D-02-0.243D-01-0.103D+00-0.837D-01 0.121D+01
 Gap=     0.528 Goal=   None    Shift=    0.000
 RMSDP=2.83D-05 MaxDP=1.54D-03 DE=-3.56D-04 OVMax= 4.29D-03

 Cycle   6  Pass 1  IDiag  1:
 E= -168.989511530259     Delta-E=       -0.000049074701 Rises=F Damp=F
 DIIS: error= 1.20D-04 at cycle   6 NSaved=   6.
 NSaved= 6 IEnMin= 6 EnMin= -168.989511530259     IErMin= 6 ErrMin= 1.20D-04
 ErrMax= 1.20D-04 EMaxC= 1.00D-01 BMatC= 3.13D-06 BMatP= 1.89D-05
 IDIUse=3 WtCom= 9.99D-01 WtEn= 1.20D-03
 Coeff-Com:  0.170D-02-0.955D-02-0.414D-01-0.949D-01 0.194D+00 0.950D+00
 Coeff-En:   0.000D+00 0.000D+00 0.000D+00 0.000D+00 0.000D+00 0.100D+01
 Coeff:      0.170D-02-0.953D-02-0.414D-01-0.948D-01 0.194D+00 0.950D+00
 Gap=     0.529 Goal=   None    Shift=    0.000
 RMSDP=1.12D-05 MaxDP=6.45D-04 DE=-4.91D-05 OVMax= 1.21D-03

 Cycle   7  Pass 1  IDiag  1:
 E= -168.989518115615     Delta-E=       -0.000006585356 Rises=F Damp=F
 DIIS: error= 5.18D-05 at cycle   7 NSaved=   7.
 NSaved= 7 IEnMin= 7 EnMin= -168.989518115615     IErMin= 7 ErrMin= 5.18D-05
 ErrMax= 5.18D-05 EMaxC= 1.00D-01 BMatC= 4.02D-07 BMatP= 3.13D-06
 IDIUse=1 WtCom= 1.00D+00 WtEn= 0.00D+00
 Coeff-Com: -0.489D-03 0.412D-02 0.194D-01 0.856D-02-0.176D+00-0.691D-01
 Coeff-Com:  0.121D+01
 Coeff:     -0.489D-03 0.412D-02 0.194D-01 0.856D-02-0.176D+00-0.691D-01
 Coeff:      0.121D+01
 Gap=     0.530 Goal=   None    Shift=    0.000
 RMSDP=5.03D-06 MaxDP=2.63D-04 DE=-6.59D-06 OVMax= 7.81D-04

 Cycle   8  Pass 1  IDiag  1:
 E= -168.989519334517     Delta-E=       -0.000001218902 Rises=F Damp=F
 DIIS: error= 1.47D-05 at cycle   8 NSaved=   8.
 NSaved= 8 IEnMin= 8 EnMin= -168.989519334517     IErMin= 8 ErrMin= 1.47D-05
 ErrMax= 1.47D-05 EMaxC= 1.00D-01 BMatC= 3.55D-08 BMatP= 4.02D-07
 IDIUse=1 WtCom= 1.00D+00 WtEn= 0.00D+00
 Coeff-Com: -0.567D-04 0.108D-03-0.777D-04 0.330D-02 0.243D-01-0.632D-01
 Coeff-Com: -0.308D+00 0.134D+01
 Coeff:     -0.567D-04 0.108D-03-0.777D-04 0.330D-02 0.243D-01-0.632D-01
 Coeff:     -0.308D+00 0.134D+01
 Gap=     0.530 Goal=   None    Shift=    0.000
 RMSDP=1.69D-06 MaxDP=7.75D-05 DE=-1.22D-06 OVMax= 2.72D-04

 Cycle   9  Pass 1  IDiag  1:
 E= -168.989519464189     Delta-E=       -0.000000129673 Rises=F Damp=F
 DIIS: error= 4.64D-06 at cycle   9 NSaved=   9.
 NSaved= 9 IEnMin= 9 EnMin= -168.989519464189     IErMin= 9 ErrMin= 4.64D-06
 ErrMax= 4.64D-06 EMaxC= 1.00D-01 BMatC= 3.92D-09 BMatP= 3.55D-08
 IDIUse=1 WtCom= 1.00D+00 WtEn= 0.00D+00
 Coeff-Com:  0.638D-04-0.444D-03-0.160D-02-0.319D-02 0.889D-02 0.316D-01
 Coeff-Com: -0.203D-02-0.485D+00 0.145D+01
 Coeff:      0.638D-04-0.444D-03-0.160D-02-0.319D-02 0.889D-02 0.316D-01
 Coeff:     -0.203D-02-0.485D+00 0.145D+01
 Gap=     0.530 Goal=   None    Shift=    0.000
 RMSDP=5.19D-07 MaxDP=2.23D-05 DE=-1.30D-07 OVMax= 7.36D-05

 Cycle  10  Pass 1  IDiag  1:
 E= -168.989519476973     Delta-E=       -0.000000012784 Rises=F Damp=F
 DIIS: error= 8.64D-07 at cycle  10 NSaved=  10.
 NSaved=10 IEnMin=10 EnMin= -168.989519476973     IErMin=10 ErrMin= 8.64D-07
 ErrMax= 8.64D-07 EMaxC= 1.00D-01 BMatC= 2.81D-10 BMatP= 3.92D-09
 IDIUse=1 WtCom= 1.00D+00 WtEn= 0.00D+00
 Coeff-Com: -0.142D-05 0.304D-04 0.285D-03-0.114D-03-0.416D-02 0.376D-02
 Coeff-Com:  0.353D-01-0.853D-01-0.190D+00 0.124D+01
 Coeff:     -0.142D-05 0.304D-04 0.285D-03-0.114D-03-0.416D-02 0.376D-02
 Coeff:      0.353D-01-0.853D-01-0.190D+00 0.124D+01
 Gap=     0.530 Goal=   None    Shift=    0.000
 RMSDP=1.35D-07 MaxDP=5.91D-06 DE=-1.28D-08 OVMax= 1.48D-05

 Cycle  11  Pass 1  IDiag  1:
 E= -168.989519477706     Delta-E=       -0.000000000732 Rises=F Damp=F
 DIIS: error= 1.84D-07 at cycle  11 NSaved=  11.
 NSaved=11 IEnMin=11 EnMin= -168.989519477706     IErMin=11 ErrMin= 1.84D-07
 ErrMax= 1.84D-07 EMaxC= 1.00D-01 BMatC= 6.16D-12 BMatP= 2.81D-10
 IDIUse=1 WtCom= 1.00D+00 WtEn= 0.00D+00
 Coeff-Com: -0.254D-05 0.160D-04 0.323D-04 0.159D-03 0.358D-04-0.118D-02
 Coeff-Com: -0.588D-02 0.331D-01-0.250D-01-0.214D+00 0.121D+01
 Coeff:     -0.254D-05 0.160D-04 0.323D-04 0.159D-03 0.358D-04-0.118D-02
 Coeff:     -0.588D-02 0.331D-01-0.250D-01-0.214D+00 0.121D+01
 Gap=     0.530 Goal=   None    Shift=    0.000
 RMSDP=1.54D-08 MaxDP=5.89D-07 DE=-7.32D-10 OVMax= 2.03D-06

 Cycle  12  Pass 1  IDiag  1:
 E= -168.989519477721     Delta-E=       -0.000000000015 Rises=F Damp=F
 DIIS: error= 2.54D-08 at cycle  12 NSaved=  12.
 NSaved=12 IEnMin=12 EnMin= -168.989519477721     IErMin=12 ErrMin= 2.54D-08
 ErrMax= 2.54D-08 EMaxC= 1.00D-01 BMatC= 1.85D-13 BMatP= 6.16D-12
 IDIUse=1 WtCom= 1.00D+00 WtEn= 0.00D+00
 Coeff-Com:  0.347D-06-0.297D-05-0.103D-04-0.278D-04 0.720D-04 0.236D-03
 Coeff-Com:  0.933D-04-0.432D-02 0.119D-01-0.381D-02-0.195D+00 0.119D+01
 Coeff:      0.347D-06-0.297D-05-0.103D-04-0.278D-04 0.720D-04 0.236D-03
 Coeff:      0.933D-04-0.432D-02 0.119D-01-0.381D-02-0.195D+00 0.119D+01
 Gap=     0.530 Goal=   None    Shift=    0.000
 RMSDP=3.00D-09 MaxDP=1.24D-07 DE=-1.49D-11 OVMax= 3.17D-07

 SCF Done:  E(RHF) =  -168.989519478     A.U. after   12 cycles
             Convg  =    0.3002D-08             -V/T =  2.0024
 KE= 1.685787744521D+02 PE=-5.382835854791D+02 EE= 1.304651020372D+02
 Leave Link  502 at Fri Sep  6 17:06:47 2019, MaxMem= 4294967296 cpu:     328.9
 (Enter /opt/g09gh/gaussian/g09/l801.exe)
 ExpMin= 1.03D-01 ExpMax= 1.53D+04 ExpMxC= 5.22D+02 IAcc=1 IRadAn=         1 AccDes= 0.00D+00
 HarFok:  IExCor=  205 AccDes= 0.00D+00 IRadAn=         1 IDoV=-2
 ScaDFX=  1.000000  1.000000  1.000000  1.000000
 Largest valence mixing into a core orbital is  2.16D-04
 Largest core mixing into a valence orbital is  2.95D-05
 Range of M.O.s used for correlation:     4   250
 NBasis=   250 NAE=    12 NBE=    12 NFC=     3 NFV=     0
 NROrb=    247 NOA=     9 NOB=     9 NVA=   238 NVB=   238
 Leave Link  801 at Fri Sep  6 17:06:48 2019, MaxMem= 4294967296 cpu:       0.3
 (Enter /opt/g09gh/gaussian/g09/l906.exe)
 Frozen-core derivative calculation, NFC=   3 NFV=   0.
 FulOut=F Deriv=T AODrv=T NAtomX=    11
   MMem=         378  MDisk=           9 MDiskD=           9
  W3Min=      855000 MinDsk=     1718675 NBas6D=         285
 NBas2D=       41364    NTT=       40755    LW2=     3500000
    MDV=  4294223811 MDiskM=       75302 NBas2p=       39717
 Fully direct method using O(ONN) memory.
 IMap=   1   2   3   4   5   6   7   8   9  10  11  12
 JobTyp=1 Pass  1:  I=   4 to  12 NPSUse=  8 ParTrn=T ParDer=T DoDerP=T.
 Spin components of T(2) and E(2):
     alpha-alpha T2 =       0.2208731226D-01 E2=     -0.7638757873D-01
     alpha-beta  T2 =       0.1242222351D+00 E2=     -0.4578163418D+00
     beta-beta   T2 =       0.2208731226D-01 E2=     -0.7638757873D-01
 The integrals were generated   1 times.
 ANorm=    0.1080924077D+01
 E2 =    -0.6105914993D+00 EUMP2 =    -0.16960011097700D+03
 Leave Link  906 at Fri Sep  6 17:07:33 2019, MaxMem= 4294967296 cpu:     361.6
 (Enter /opt/g09gh/gaussian/g09/l1002.exe)
 Minotr:  Closed shell wavefunction.
          Computing MP2/KS-MP2 derivatives.
          Using Z-Vector for PSCF gradient.
          Skipping F1 and S1 gradient terms here.
          IDoAtm=11111111111
          Frozen-core window.
          Direct CPHF calculation.
          Differentiating once with respect to electric field.
                with respect to dipole field.
          Differentiating once with respect to nuclear coordinates.
          Requested convergence is 1.0D-10 RMS, and 1.0D-09 maximum.
          NewPWx=F KeepS1=T KeepF1=T KeepIn=T MapXYZ=F SortEE=F KeepMc=T.
          MDV=    4294967182 using IRadAn=       0.
          Keep R1 ints in memory in canonical form, NReq=832447090.
 Symmetry not used in FoFDir.
 MinBra= 0 MaxBra= 3 Meth= 1.
 IRaf=       0 NMat=   1 IRICut=       1 DoRegI=T DoRafI=F ISym2E= 0 JSym2E=0.
          Solving linear equations separately, MaxMat=       0.
          There are     1 degrees of freedom in the 1st order CPHF.  IDoFFX=0.
 LinEq1:  Iter=  0 NonCon=     1 RMS=4.26D-03 Max=1.43D-01
 AX will form     1 AO Fock derivatives at one time.
 LinEq1:  Iter=  1 NonCon=     1 RMS=1.27D-03 Max=2.59D-02
 LinEq1:  Iter=  2 NonCon=     1 RMS=4.71D-04 Max=7.16D-03
 LinEq1:  Iter=  3 NonCon=     1 RMS=2.15D-04 Max=3.79D-03
[...]
          Skipping F1 and S1 gradient terms here.
          IDoAtm=00000111111
          Frozen-core window.
          Direct CPHF calculation.
          Differentiating once with respect to electric field.
                with respect to dipole field.
          Differentiating once with respect to nuclear coordinates.
          Requested convergence is 1.0D-10 RMS, and 1.0D-09 maximum.
          NewPWx=F KeepS1=T KeepF1=T KeepIn=F MapXYZ=T SortEE=F KeepMc=T.
          MDV=    4294967182 using IRadAn=       0.
          Keep R1 ints in memory in canonical form, NReq=66074661.
 Symmetry not used in FoFDir.
 MinBra= 0 MaxBra= 3 Meth= 1.
 IRaf=       0 NMat=   1 IRICut=       1 DoRegI=T DoRafI=F ISym2E= 0 JSym2E=0.
          Solving linear equations separately, MaxMat=       0.
          There are     1 degrees of freedom in the 1st order CPHF.  IDoFFX=0.
 LinEq1:  Iter=  0 NonCon=     1 RMS=5.73D-03 Max=1.39D-01
 AX will form     1 AO Fock derivatives at one time.
 LinEq1:  Iter=  1 NonCon=     1 RMS=1.66D-03 Max=2.36D-02
 LinEq1:  Iter=  2 NonCon=     1 RMS=6.02D-04 Max=7.23D-03
 LinEq1:  Iter=  3 NonCon=     1 RMS=2.78D-04 Max=3.74D-03
 LinEq1:  Iter=  4 NonCon=     1 RMS=6.55D-05 Max=6.72D-04
 LinEq1:  Iter=  5 NonCon=     1 RMS=1.19D-05 Max=1.52D-04
 LinEq1:  Iter=  6 NonCon=     1 RMS=3.16D-06 Max=5.14D-05
 LinEq1:  Iter=  7 NonCon=     1 RMS=7.22D-07 Max=1.04D-05
 LinEq1:  Iter=  8 NonCon=     1 RMS=1.64D-07 Max=1.70D-06
 LinEq1:  Iter=  9 NonCon=     1 RMS=6.00D-08 Max=6.69D-07
 LinEq1:  Iter= 10 NonCon=     1 RMS=1.40D-08 Max=1.02D-07
 LinEq1:  Iter= 11 NonCon=     1 RMS=1.89D-09 Max=1.75D-08
 LinEq1:  Iter= 12 NonCon=     1 RMS=2.53D-10 Max=1.87D-09
 LinEq1:  Iter= 13 NonCon=     0 RMS=3.03D-11 Max=2.24D-10
 Linear equations converged to 1.000D-10 1.000D-09 after    13 iterations.
 End of Minotr Frequency-dependent properties file   721 does not exist.
 End of Minotr Frequency-dependent properties file   722 does not exist.
 Leave Link 1002 at Fri Sep  6 19:24:41 2019, MaxMem= 4294967296 cpu:      23.3
 (Enter /opt/g09gh/gaussian/g09/l701.exe)
 Compute integral first derivatives.
 ... and contract with generalized density number  2.
 Leave Link  701 at Fri Sep  6 19:24:41 2019, MaxMem= 4294967296 cpu:       1.5
 (Enter /opt/g09gh/gaussian/g09/l702.exe)
 L702 exits ... SP integral derivatives will be done elsewhere.
 Leave Link  702 at Fri Sep  6 19:24:41 2019, MaxMem= 4294967296 cpu:       0.2
 (Enter /opt/g09gh/gaussian/g09/l703.exe)
 Compute integral first derivatives, UseDBF=F ICtDFT=           0.
 Integral derivatives from FoFDir, PRISM(SPDF).
 Calling FoFJK, ICntrl=      2127 FMM=F ISym2X=0 I1Cent= 0 IOpClX= 0 NMat=1 NMatS=1 NMatT=0.
 FoFCou: FMM=F IPFlag=           0 FMFlag=      100000 FMFlg1=         800
         NFxFlg=           0 DoJE=F BraDBF=F KetDBF=F FulRan=T
         Omega=  0.000000  0.000000  1.000000  0.000000  0.000000 ICntrl=    2127 IOpCl=  0
         NMat0=    1 NMatS0=    1 NMatT0=    0 NMatD0=    1 NMtDS0=    0 NMtDT0=    0
         I1Cent=           0 NGrid=           0.
 Symmetry not used in FoFCou.
 Leave Link  703 at Fri Sep  6 19:24:43 2019, MaxMem= 4294967296 cpu:      12.8
 (Enter /opt/g09gh/gaussian/g09/l716.exe)
 Dipole        = 5.55277642D-01 1.45905778D+00-8.28316155D-07
 Cartesian Forces:  Max     0.032902130 RMS     0.007782226
 Leave Link  716 at Fri Sep  6 19:24:43 2019, MaxMem= 4294967296 cpu:       0.2
 (Enter /opt/g09gh/gaussian/g09/l122.exe)
 Restoring MOs from calculation   1 to rwf.
 Counterpoise: corrected energy =    -359.099362509856
 Counterpoise: BSSE energy =       0.004022194608
 Leave Link  122 at Fri Sep  6 19:24:43 2019, MaxMem= 4294967296 cpu:       0.0
 (Enter /opt/g09gh/gaussian/g09/l716.exe)
 Dipole        = 7.97067210D-01 7.95753288D-01-1.31128731D-06
 -------------------------------------------------------------------
 Center     Atomic                   Forces (Hartrees/Bohr)
 Number     Number              X              Y              Z
 -------------------------------------------------------------------
      1        6          -0.000001757   -0.000004049    0.000000636
      2        1           0.000000740    0.000000050   -0.000000223
      3        8           0.000000954    0.000000723   -0.000000230
      4        8          -0.000000895    0.000002667   -0.000000183
      5        1          -0.000000113    0.000000819    0.000000005
      6        6           0.000001878   -0.000002510   -0.000001025
      7        1          -0.000000260   -0.000000008    0.000000360
      8        8           0.000000622    0.000001259    0.000000364
      9        7          -0.000002345    0.000005410    0.000000225
     10        1          -0.000000354   -0.000002041    0.000000010
     11        1           0.000001530   -0.000002320    0.000000062
 -------------------------------------------------------------------
 Cartesian Forces:  Max     0.000005410 RMS     0.000001657
 Leave Link  716 at Fri Sep  6 19:24:43 2019, MaxMem= 4294967296 cpu:       0.1
 (Enter /opt/g09gh/gaussian/g09/l103.exe)

 GradGradGradGradGradGradGradGradGradGradGradGradGradGradGradGradGradGrad
 Berny optimization.
 Using GEDIIS/GDIIS optimizer.
 Internal  Forces:  Max     0.000003217 RMS     0.000000972
 Search for a local minimum.
 Step number  18 out of a maximum of   50
 All quantities printed in internal units (Hartrees-Bohrs-Radians)
 RMS Force = .97205D-06 SwitMx=.10000D-02 MixMth= 2
 Mixed Optimization -- En-DIIS/RFO-DIIS
 Swaping is turned off.
 Update second derivatives using D2CorX and points    4    5    6    7    8
                                                      9   10   11   12   13
                                                     14   15   16   17   18
 DE=  1.85D-08 DEPred=-1.11D-09 R=-1.66D+01
 Trust test=-1.66D+01 RLast= 2.25D-04 DXMaxT set to 4.23D-01
     Eigenvalues ---    0.00443   0.00799   0.01022   0.01359   0.01946
     Eigenvalues ---    0.01975   0.02397   0.02702   0.03033   0.03401
     Eigenvalues ---    0.05131   0.07434   0.08333   0.13737   0.15668
     Eigenvalues ---    0.16239   0.19892   0.25964   0.32005   0.32549
     Eigenvalues ---    0.37098   0.44173   0.45923   0.56686   0.64060
     Eigenvalues ---    0.83168   0.886201000.000001000.000001000.00000
     Eigenvalues --- 1000.000001000.000001000.000001000.000001000.00000
     Eigenvalues --- 1000.000001000.000001000.000001000.000001000.00000
 En-DIIS/RFO-DIIS IScMMF=        0 using points:    18   17   16   15   14
 RFO step:  Lambda= 0.00000000D+00.
 DIIS coeffs:      1.16295     -0.17251      0.00119      0.00481      0.00357
 Iteration  1 RMS(Cart)=  0.00001277 RMS(Int)=  0.00000000
 Iteration  2 RMS(Cart)=  0.00000000 RMS(Int)=  0.00000000
 Variable       Old X    -DE/DX   Delta X   Delta X   Delta X     New X
                                  (DIIS)     (GDIIS)  (Total)
    R1        2.06562   0.00000   0.00000   0.00000   0.00000   2.06561
    R2        2.29950   0.00000   0.00000   0.00000   0.00000   2.29951
    R3        2.48952   0.00000   0.00000   0.00000   0.00000   2.48951
    R4        3.60289   0.00000   0.00000   0.00004   0.00004   3.60293
    R5        1.88663   0.00000   0.00000  -0.00001   0.00000   1.88663
    R6        3.17475   0.00000   0.00003   0.00000   0.00003   3.17479
    R7        2.07166   0.00000   0.00000   0.00000   0.00000   2.07166
    R8        2.32416   0.00000   0.00000   0.00000   0.00000   2.32416
    R9        2.52910   0.00000   0.00000   0.00000   0.00000   2.52910
   R10        1.92175   0.00000   0.00000   0.00000   0.00000   1.92175
   R11        1.89358   0.00000   0.00000   0.00000   0.00000   1.89358
    A1        2.13888   0.00000   0.00000   0.00000   0.00000   2.13888
    A2        1.93224   0.00000   0.00000   0.00000   0.00000   1.93224
    A3        2.21207   0.00000   0.00000   0.00000  -0.00001   2.21206
    A4        2.17968   0.00000   0.00000   0.00000   0.00000   2.17967
    A5        1.92317   0.00000   0.00000  -0.00001  -0.00001   1.92316
    A6        2.11012   0.00000   0.00000   0.00000   0.00000   2.11012
    A7        1.98896   0.00000   0.00000   0.00000   0.00000   1.98897
    A8        2.18411   0.00000   0.00000   0.00000  -0.00001   2.18410
    A9        2.16192   0.00000   0.00000   0.00000   0.00000   2.16192
   A10        2.08111   0.00000  -0.00001   0.00000  -0.00001   2.08110
   A11        2.09324   0.00000   0.00000  -0.00001  -0.00001   2.09323
   A12        2.10883   0.00000   0.00001   0.00001   0.00002   2.10885
   A13        2.86586   0.00000   0.00002  -0.00001   0.00001   2.86588
   A14        3.24164   0.00000   0.00000   0.00002   0.00002   3.24166
   A15        3.14159   0.00000   0.00000   0.00000   0.00000   3.14159
    D1        3.14159   0.00000   0.00000   0.00000   0.00000  -3.14159
    D2        0.00000   0.00000   0.00000   0.00000   0.00000   0.00000
    D3       -3.14159   0.00000   0.00000   0.00000   0.00000   3.14159
    D4        0.00000   0.00000   0.00000   0.00000   0.00000   0.00000
    D5        0.00000   0.00000   0.00000   0.00001   0.00001   0.00000
    D6        0.00000   0.00000   0.00000  -0.00001   0.00000   0.00000
    D7       -3.14159   0.00000   0.00000  -0.00001  -0.00001   3.14159
    D8        0.00000   0.00000   0.00000   0.00001   0.00001   0.00000
    D9        3.14159   0.00000   0.00000   0.00001   0.00001  -3.14159
   D10        0.00000   0.00000   0.00000   0.00001   0.00001   0.00000
   D11        0.00000   0.00000   0.00000  -0.00001  -0.00001   0.00000
   D12       -3.14159   0.00000   0.00000  -0.00001  -0.00001   3.14159
   D13        0.00000   0.00000   0.00000   0.00000   0.00000   0.00000
   D14        3.14159   0.00000   0.00000   0.00000   0.00000  -3.14159
         Item               Value     Threshold  Converged?
 Maximum Force            0.000003     0.000015     YES
 RMS     Force            0.000001     0.000010     YES
 Maximum Displacement     0.000031     0.000060     YES
 RMS     Displacement     0.000013     0.000040     YES
 Predicted change in Energy=-1.110779D-10
 Optimization completed.
    -- Stationary point found.
                           ----------------------------
                           !   Optimized Parameters   !
                           ! (Angstroms and Degrees)  !
 --------------------------                            --------------------------
 ! Name  Definition              Value          Derivative Info.                !
 --------------------------------------------------------------------------------
 ! R1    R(1,2)                  1.0931         -DE/DX =    0.0                 !
 ! R2    R(1,3)                  1.2168         -DE/DX =    0.0                 !
 ! R3    R(1,4)                  1.3174         -DE/DX =    0.0                 !
 ! R4    R(3,10)                 1.9066         -DE/DX =    0.0                 !
 ! R5    R(4,5)                  0.9984         -DE/DX =    0.0                 !
 ! R6    R(5,8)                  1.68           -DE/DX =    0.0                 !
 ! R7    R(6,7)                  1.0963         -DE/DX =    0.0                 !
 ! R8    R(6,8)                  1.2299         -DE/DX =    0.0                 !
 ! R9    R(6,9)                  1.3383         -DE/DX =    0.0                 !
 ! R10   R(9,10)                 1.0169         -DE/DX =    0.0                 !
 ! R11   R(9,11)                 1.002          -DE/DX =    0.0                 !
 ! A1    A(2,1,3)              122.5486         -DE/DX =    0.0                 !
 ! A2    A(2,1,4)              110.7091         -DE/DX =    0.0                 !
 ! A3    A(3,1,4)              126.7423         -DE/DX =    0.0                 !
 ! A4    A(1,3,10)             124.8862         -DE/DX =    0.0                 !
 ! A5    A(1,4,5)              110.1893         -DE/DX =    0.0                 !
 ! A6    A(7,6,8)              120.9008         -DE/DX =    0.0                 !
 ! A7    A(7,6,9)              113.9591         -DE/DX =    0.0                 !
 ! A8    A(8,6,9)              125.1401         -DE/DX =    0.0                 !
 ! A9    A(5,8,6)              123.8689         -DE/DX =    0.0                 !
 ! A10   A(6,9,10)             119.2389         -DE/DX =    0.0                 !
 ! A11   A(6,9,11)             119.9341         -DE/DX =    0.0                 !
 ! A12   A(10,9,11)            120.827          -DE/DX =    0.0                 !
 ! A13   A(3,10,9)             164.202          -DE/DX =    0.0                 !
 ! A14   L(4,5,8,1,-1)         185.7324         -DE/DX =    0.0                 !
 ! A15   L(4,5,8,1,-2)         180.0            -DE/DX =    0.0                 !
 ! D1    D(2,1,3,10)          -180.0001         -DE/DX =    0.0                 !
 ! D2    D(4,1,3,10)             0.0002         -DE/DX =    0.0                 !
 ! D3    D(2,1,4,5)            180.0001         -DE/DX =    0.0                 !
 ! D4    D(3,1,4,5)             -0.0001         -DE/DX =    0.0                 !
 ! D5    D(1,3,10,9)            -0.0002         -DE/DX =    0.0                 !
 ! D6    D(1,4,8,6)              0.0001         -DE/DX =    0.0                 !
 ! D7    D(7,6,8,5)            180.0003         -DE/DX =    0.0                 !
 ! D8    D(9,6,8,5)             -0.0002         -DE/DX =    0.0                 !
 ! D9    D(7,6,9,10)          -180.0002         -DE/DX =    0.0                 !
 ! D10   D(7,6,9,11)            -0.0002         -DE/DX =    0.0                 !
 ! D11   D(8,6,9,10)             0.0002         -DE/DX =    0.0                 !
 ! D12   D(8,6,9,11)           180.0003         -DE/DX =    0.0                 !
 ! D13   D(6,9,10,3)             0.0            -DE/DX =    0.0                 !
 ! D14   D(11,9,10,3)         -180.0            -DE/DX =    0.0                 !
 --------------------------------------------------------------------------------
 GradGradGradGradGradGradGradGradGradGradGradGradGradGradGradGradGradGrad

 Largest change from initial coordinates is atom    2       0.083 Angstoms.
 Leave Link  103 at Fri Sep  6 19:24:43 2019, MaxMem= 4294967296 cpu:       0.2
 (Enter /opt/g09gh/gaussian/g09/l202.exe)
                          Input orientation:                          
 ---------------------------------------------------------------------
 Center     Atomic      Atomic             Coordinates (Angstroms)
 Number     Number       Type             X           Y           Z
 ---------------------------------------------------------------------
      1          6           0       -1.952115    0.232337   -0.000001
      2          1           0       -3.045072    0.248503    0.000001
      3          8           0       -1.282336    1.248265    0.000000
      4          8           0       -1.504527   -1.006694   -0.000001
      5          1           0       -0.506181   -1.012401   -0.000001
      6          6           0        1.953826   -0.246624    0.000003
      7          1           0        3.036522   -0.418650   -0.000001
      8          8           0        1.164437   -1.189757    0.000000
      9          7           0        1.608993    1.046528    0.000001
     10          1           0        0.623588    1.297848    0.000000
     11          1           0        2.319207    1.753408   -0.000001
 ---------------------------------------------------------------------
                    Distance matrix (angstroms):
                    1          2          3          4          5
     1  C    0.000000
     2  H    1.093077   0.000000
     3  O    1.216845   2.026515   0.000000
     4  O    1.317396   1.987158   2.265879   0.000000
     5  H    1.907903   2.834756   2.390194   0.998362   0.000000
     6  C    3.935197   5.023358   3.564749   3.540891   2.576441
     7  H    5.030932   6.118078   4.629378   4.578965   3.592115
     8  O    3.425675   4.448433   3.454078   2.675235   1.680007
     9  N    3.652998   4.721987   2.898358   3.729574   2.951805
    10  H    2.787392   3.815781   1.906569   3.136843   2.571697
    11  H    4.534076   5.571376   3.636796   4.715835   3.953798
                    6          7          8          9         10
     6  C    0.000000
     7  H    1.096278   0.000000
     8  O    1.229891   2.024674   0.000000
     9  N    1.338340   2.045627   2.280044   0.000000
    10  H    2.038364   2.961185   2.545721   1.016949   0.000000
    11  H    2.033134   2.287439   3.161600   1.002039   1.755751
                   11
    11  H    0.000000
 Symmetry turned off by external request.
 Stoichiometry    C2H5NO3
 Framework group  C1[X(C2H5NO3)]
 Deg. of freedom    27
 Full point group                 C1      NOp   1
 Rotational constants (GHZ):      5.8671200      2.1316198      1.5635549
 Leave Link  202 at Fri Sep  6 19:24:44 2019, MaxMem= 4294967296 cpu:       0.1
 (Enter /opt/g09gh/gaussian/g09/l601.exe)
 Copying SCF densities to generalized density rwf, IOpCl= 0 IROHF=0.

 **********************************************************************

            Population analysis using the SCF density.

 **********************************************************************

 Electronic spatial extent (au):  <R**2>=            703.4785
 Charge=              0.0000 electrons
 Dipole moment (field-independent basis, Debye):
    X=              2.1230    Y=              2.0679    Z=              0.0000  Tot=              2.9637
 Quadrupole moment (field-independent basis, Debye-Ang):
   XX=            -21.5948   YY=            -39.9862   ZZ=            -35.4524
   XY=              4.8630   XZ=              0.0000   YZ=              0.0000
 Traceless Quadrupole moment (field-independent basis, Debye-Ang):
   XX=             10.7497   YY=             -7.6417   ZZ=             -3.1080
   XY=              4.8630   XZ=              0.0000   YZ=              0.0000
 Octapole moment (field-independent basis, Debye-Ang**2):
  XXX=              7.3764  YYY=              3.9306  ZZZ=              0.0000  XYY=             10.4316
  XXY=              9.1211  XXZ=              0.0000  XZZ=             -3.0590  YZZ=             -2.3764
  YYZ=              0.0000  XYZ=              0.0000
 Hexadecapole moment (field-independent basis, Debye-Ang**3):
 XXXX=           -459.1925 YYYY=           -222.9507 ZZZZ=            -30.0031 XXXY=             14.6844
 XXXZ=             -0.0002 YYYX=             34.0261 YYYZ=              0.0000 ZZZX=             -0.0001
 ZZZY=              0.0000 XXYY=           -140.0074 XXZZ=           -107.4625 YYZZ=            -44.2436
 XXYZ=              0.0000 YYXZ=             -0.0001 ZZXY=              0.1101
 No NMR shielding tensors so no spin-rotation constants.
 Leave Link  601 at Fri Sep  6 19:24:44 2019, MaxMem= 4294967296 cpu:       1.9
 (Enter /opt/g09gh/gaussian/g09/l9999.exe)

 Test job not archived.
 1\1\GINC-NODE35\FOpt\RMP2-FC\CC-pVTZ\C2H5N1O3\XY3866\06-Sep-2019\0\\#p
  MP2/cc-pvtz counterpoise=2 IOP(5/13=1) scf=tight Symmetry=None MaxDis
 k=100GB Opt=tight\\Opt=tight\\0,1\C,-1.9521145097,0.2323370365,-0.0000
 013518\H,-3.0450717895,0.2485027878,0.0000011005\O,-1.28233629,1.24826
 50687,0.0000004692\O,-1.5045268595,-1.0066935674,-0.0000007905\H,-0.50
 61813668,-1.0124007468,-0.0000006414\C,1.9538256371,-0.2466244092,0.00
 00027411\H,3.0365221732,-0.4186501426,-0.000001203\O,1.1644374806,-1.1
 897568646,0.0000002519\N,1.6089927815,1.0465284033,0.0000006228\H,0.62
 3587714,1.2978480356,0.0000002385\H,2.3192071291,1.7534078986,-0.00000
 14374\\Version=EM64L-G09RevA.02\HF=-168.9994904\MP2=-169.6046086\RMSD=
 3.454e-09\RMSF=1.657e-06\Dipole=0.8352602,0.8135673,-0.0000011\Quadrup
 ole=7.9921222,-5.6814349,-2.3106873,3.6154907,0.0000009,-0.0000075\PG=
 C01 [X(C2H5N1O3)]\\@


 EDUCATION WITHOUT COMMON SENSE IS A LOAD OF BOOKS ON THE BACK OF AN ASS.
 Job cpu time:  0 days 18 hours 57 minutes  3.5 seconds.
 File lengths (MBytes):  RWF=     43 Int=      0 D2E=      0 Chk=     12 Scr=      1
 Normal termination of Gaussian 09 at Fri Sep  6 19:24:45 2019.
