
    -----------------------------------------------------------------------
          Psi4: An Open-Source Ab Initio Electronic Structure Package
                               Psi4 1.3.2 release

                         Git: Rev {HEAD} ecbda83 


    R. M. Parrish, L. A. Burns, D. G. A. Smith, A. C. Simmonett,
    A. E. DePrince III, E. G. Hohenstein, U. Bozkaya, A. Yu. Sokolov,
    R. Di Remigio, R. M. Richard, J. F. Gonthier, A. M. James,
    H. R. McAlexander, A. Kumar, M. Saitow, X. Wang, B. P. Pritchard,
    P. Verma, H. F. Schaefer III, K. Patkowski, R. A. King, E. F. Valeev,
    F. A. Evangelista, J. M. Turney, T. D. Crawford, and C. D. Sherrill,
    J. Chem. Theory Comput. 13(7) pp 3185--3197 (2017).
    (doi: 10.1021/acs.jctc.7b00174)


                         Additional Contributions by
    P. Kraus, H. Kruse, M. H. Lechner, M. C. Schieber, R. A. Shaw,
    A. Alenaizan, R. Galvelis, Z. L. Glick, S. Lehtola, and J. P. Misiewicz

    -----------------------------------------------------------------------


    Psi4 started on: Tuesday, 10 September 2019 10:42AM

    Process ID: 38589
    Host:       node51.bme.utexas.edu
    PSIDATADIR: /home/xy3866/psi4conda/share/psi4
    Memory:     500.0 MiB
    Threads:    4
    
  ==> Input File <==

--------------------------------------------------------------------------
#psi4
#
memory 32 gb

molecule  {
0 1
  C        0.0000000    -1.3936580     1.0640200
  C        1.2077370    -0.6968160     1.0627950
  C        1.2077370     0.6968160     1.0627950
  C        0.0000000     1.3936580     1.0640200
  C       -1.2077370     0.6968160     1.0627950
  C       -1.2077370    -0.6968160     1.0627950
  H        0.0000000    -2.4753200     1.0692940
  H        2.1443140    -1.2373140     1.0618960
  H        2.1443140     1.2373140     1.0618960
  H        0.0000000     2.4753200     1.0692940
  H       -2.1443140     1.2373140     1.0618960
  H       -2.1443140    -1.2373140     1.0618960
--
0 1
  S        0.0000000     0.0000000    -2.3154069
  H        0.0000000     0.9544370    -1.3793389
  H        0.0000000    -0.9544370    -1.3793389
units angstrom
no_reorient  #important for SAPT in psi4, default
symmetry c1  #important for SAPT in psi4, default
}

set {
basis aug-cc-pVTZ
scf_type DF
freeze_core True
}
energy('sapt2+')
--------------------------------------------------------------------------

  Memory set to  29.802 GiB by Python driver.

  //>>>>>>>>>>>>>>>>>>>>>>>>>>>>>>>>>>>//
  //              Dimer HF             //
  //<<<<<<<<<<<<<<<<<<<<<<<<<<<<<<<<<<<//


*** tstart() called on node51.bme.utexas.edu
*** at Tue Sep 10 10:42:45 2019

   => Loading Basis Set <=

    Name: AUG-CC-PVTZ
    Role: ORBITAL
    Keyword: BASIS
    atoms 1-6         entry C          line   235 file /home/xy3866/psi4conda/share/psi4/basis/aug-cc-pvtz.gbs 
    atoms 7-12, 14-15 entry H          line    36 file /home/xy3866/psi4conda/share/psi4/basis/aug-cc-pvtz.gbs 
    atoms 13          entry S          line   902 file /home/xy3866/psi4conda/share/psi4/basis/aug-cc-pvtz.gbs 


         ---------------------------------------------------------
                                   SCF
               by Justin Turney, Rob Parrish, Andy Simmonett
                          and Daniel G. A. Smith
                              RHF Reference
                        4 Threads,  30517 MiB Core
         ---------------------------------------------------------

  ==> Geometry <==

    Molecular point group: c1
    Full point group: C2v

    Geometry (in Angstrom), charge = 0, multiplicity = 1:

       Center              X                  Y                   Z               Mass       
    ------------   -----------------  -----------------  -----------------  -----------------
         C            0.000000000000    -1.393658000000     1.008874881301    12.000000000000
         C            1.207737000000    -0.696816000000     1.007649881301    12.000000000000
         C            1.207737000000     0.696816000000     1.007649881301    12.000000000000
         C            0.000000000000     1.393658000000     1.008874881301    12.000000000000
         C           -1.207737000000     0.696816000000     1.007649881301    12.000000000000
         C           -1.207737000000    -0.696816000000     1.007649881301    12.000000000000
         H            0.000000000000    -2.475320000000     1.014148881301     1.007825032230
         H            2.144314000000    -1.237314000000     1.006750881301     1.007825032230
         H            2.144314000000     1.237314000000     1.006750881301     1.007825032230
         H            0.000000000000     2.475320000000     1.014148881301     1.007825032230
         H           -2.144314000000     1.237314000000     1.006750881301     1.007825032230
         H           -2.144314000000    -1.237314000000     1.006750881301     1.007825032230
         S            0.000000000000     0.000000000000    -2.370552018699    31.972071174400
         H            0.000000000000     0.954437000000    -1.434484018699     1.007825032230
         H            0.000000000000    -0.954437000000    -1.434484018699     1.007825032230

  Running in c1 symmetry.

  Rotational constants: A =      0.09427  B =      0.04793  C =      0.04770 [cm^-1]
  Rotational constants: A =   2826.03195  B =   1437.00218  C =   1429.97187 [MHz]
  Nuclear repulsion =  326.986283953156430

  Charge       = 0
  Multiplicity = 1
  Electrons    = 60
  Nalpha       = 30
  Nbeta        = 30

  ==> Algorithm <==

  SCF Algorithm Type is DF.
  DIIS enabled.
  MOM disabled.
  Fractional occupation disabled.
  Guess Type is SAD.
  Energy threshold   = 1.00e-08
  Density threshold  = 1.00e-08
  Integral threshold = 0.00e+00

  ==> Primary Basis <==

  Basis Set: AUG-CC-PVTZ
    Blend: AUG-CC-PVTZ
    Number of shells: 172
    Number of basis function: 510
    Number of Cartesian functions: 589
    Spherical Harmonics?: true
    Max angular momentum: 3

   => Loading Basis Set <=

    Name: (AUG-CC-PVTZ AUX)
    Role: JKFIT
    Keyword: DF_BASIS_SCF
    atoms 1-6         entry C          line   162 file /home/xy3866/psi4conda/share/psi4/basis/aug-cc-pvtz-jkfit.gbs 
    atoms 7-12, 14-15 entry H          line    70 file /home/xy3866/psi4conda/share/psi4/basis/aug-cc-pvtz-jkfit.gbs 
    atoms 13          entry S          line   730 file /home/xy3866/psi4conda/share/psi4/basis/aug-cc-pvtz-jkfit.gbs 

  ==> Pre-Iterations <==

   -------------------------------------------------------
    Irrep   Nso     Nmo     Nalpha   Nbeta   Ndocc  Nsocc
   -------------------------------------------------------
     A        510     510       0       0       0       0
   -------------------------------------------------------
    Total     510     510      30      30      30       0
   -------------------------------------------------------

  ==> Integral Setup <==

  ==> DiskDFJK: Density-Fitted J/K Matrices <==

    J tasked:                  Yes
    K tasked:                  Yes
    wK tasked:                  No
    OpenMP threads:              4
    Integrals threads:           4
    Memory [MiB]:            22888
    Algorithm:                Core
    Integral Cache:           SAVE
    Schwarz Cutoff:          1E-12
    Fitting Condition:       1E-10

   => Auxiliary Basis Set <=

  Basis Set: (AUG-CC-PVTZ AUX)
    Blend: AUG-CC-PVTZ-JKFIT
    Number of shells: 334
    Number of basis function: 1138
    Number of Cartesian functions: 1406
    Spherical Harmonics?: true
    Max angular momentum: 4

  Minimum eigenvalue in the overlap matrix is 2.6358721008E-07.
  Using Symmetric Orthogonalization.

  SCF Guess: Superposition of Atomic Densities via on-the-fly atomic UHF.

  ==> Iterations <==

                           Total Energy        Delta E     RMS |[F,P]|

   @DF-RHF iter SAD:  -628.84865850701533   -6.28849e+02   0.00000e+00 
   @DF-RHF iter   1:  -629.28140219701504   -4.32744e-01   1.12638e-03 DIIS
   @DF-RHF iter   2:  -629.44764283733696   -1.66241e-01   5.24910e-04 DIIS
   @DF-RHF iter   3:  -629.48368679608586   -3.60440e-02   1.03677e-04 DIIS
   @DF-RHF iter   4:  -629.48610678616603   -2.41999e-03   2.49482e-05 DIIS
   @DF-RHF iter   5:  -629.48626216938874   -1.55383e-04   6.60071e-06 DIIS
   @DF-RHF iter   6:  -629.48627755768302   -1.53883e-05   1.78984e-06 DIIS
   @DF-RHF iter   7:  -629.48627884391954   -1.28624e-06   4.86353e-07 DIIS
   @DF-RHF iter   8:  -629.48627893420223   -9.02827e-08   1.16716e-07 DIIS
   @DF-RHF iter   9:  -629.48627893885339   -4.65116e-09   2.76668e-08 DIIS
   @DF-RHF iter  10:  -629.48627893911862   -2.65231e-10   9.01186e-09 DIIS
  Energy and wave function converged.


  ==> Post-Iterations <==

    Orbital Energies [Eh]
    ---------------------

    Doubly Occupied:                                                      

       1A    -91.940419     2A    -11.246186     3A    -11.245755  
       4A    -11.245432     5A    -11.244464     6A    -11.244184  
       7A    -11.243708     8A     -8.943191     9A     -6.624550  
      10A     -6.623837    11A     -6.622593    12A     -1.162095  
      13A     -1.026309    14A     -1.025238    15A     -0.961503  
      16A     -0.834621    17A     -0.834235    18A     -0.719830  
      19A     -0.653846    20A     -0.629340    21A     -0.598510  
      22A     -0.597857    23A     -0.569831    24A     -0.531333  
      25A     -0.504931    26A     -0.504515    27A     -0.463792  
      28A     -0.373137    29A     -0.347724    30A     -0.339356  

    Virtual:                                                              

      31A      0.027219    32A      0.032444    33A      0.033941  
      34A      0.046258    35A      0.046478    36A      0.053182  
      37A      0.061651    38A      0.063182    39A      0.090397  
      40A      0.093483    41A      0.095055    42A      0.103877  
      43A      0.110410    44A      0.117210    45A      0.117620  
      46A      0.121527    47A      0.121772    48A      0.124298  
      49A      0.124319    50A      0.128475    51A      0.132860  
      52A      0.148294    53A      0.149845    54A      0.150803  
      55A      0.151534    56A      0.155191    57A      0.155831  
      58A      0.158369    59A      0.168271    60A      0.170393  
      61A      0.176633    62A      0.199931    63A      0.209554  
      64A      0.229266    65A      0.231922    66A      0.240260  
      67A      0.243469    68A      0.255022    69A      0.264207  
      70A      0.272167    71A      0.277040    72A      0.295932  
      73A      0.296753    74A      0.305725    75A      0.306114  
      76A      0.308128    77A      0.312134    78A      0.323547  
      79A      0.326960    80A      0.329002    81A      0.334439  
      82A      0.339279    83A      0.343635    84A      0.344395  
      85A      0.347857    86A      0.348100    87A      0.353370  
      88A      0.365496    89A      0.368828    90A      0.369205  
      91A      0.377469    92A      0.379661    93A      0.392437  
      94A      0.405848    95A      0.424921    96A      0.427015  
      97A      0.428903    98A      0.443609    99A      0.449543  
     100A      0.451934   101A      0.458528   102A      0.470573  
     103A      0.473341   104A      0.478191   105A      0.479955  
     106A      0.482147   107A      0.486223   108A      0.491754  
     109A      0.497044   110A      0.497136   111A      0.504214  
     112A      0.505664   113A      0.517546   114A      0.517981  
     115A      0.523047   116A      0.525892   117A      0.528102  
     118A      0.537572   119A      0.539730   120A      0.553150  
     121A      0.564750   122A      0.568759   123A      0.570598  
     124A      0.600784   125A      0.616062   126A      0.619498  
     127A      0.625749   128A      0.636069   129A      0.637086  
     130A      0.651334   131A      0.651476   132A      0.652845  
     133A      0.657197   134A      0.669764   135A      0.672864  
     136A      0.698490   137A      0.702016   138A      0.704040  
     139A      0.710355   140A      0.722879   141A      0.725748  
     142A      0.735109   143A      0.755192   144A      0.761472  
     145A      0.764769   146A      0.782243   147A      0.782334  
     148A      0.789328   149A      0.789360   150A      0.798029  
     151A      0.810982   152A      0.817152   153A      0.817342  
     154A      0.822807   155A      0.829489   156A      0.842137  
     157A      0.855730   158A      0.861197   159A      0.861451  
     160A      0.868520   161A      0.877038   162A      0.879337  
     163A      0.880319   164A      0.890105   165A      0.893338  
     166A      0.898993   167A      0.902493   168A      0.905269  
     169A      0.914589   170A      0.943292   171A      0.945100  
     172A      0.954061   173A      0.955666   174A      0.972157  
     175A      0.980616   176A      0.981979   177A      0.996808  
     178A      1.019381   179A      1.043115   180A      1.045988  
     181A      1.048844   182A      1.062992   183A      1.063957  
     184A      1.080406   185A      1.082816   186A      1.084466  
     187A      1.092430   188A      1.095963   189A      1.102984  
     190A      1.105548   191A      1.118325   192A      1.124265  
     193A      1.125759   194A      1.128295   195A      1.137248  
     196A      1.139576   197A      1.145654   198A      1.147750  
     199A      1.161496   200A      1.169711   201A      1.170186  
     202A      1.177502   203A      1.194943   204A      1.200855  
     205A      1.203311   206A      1.215503   207A      1.220282  
     208A      1.222442   209A      1.222533   210A      1.229465  
     211A      1.254524   212A      1.257696   213A      1.266210  
     214A      1.270637   215A      1.271478   216A      1.277465  
     217A      1.299828   218A      1.303205   219A      1.319672  
     220A      1.324495   221A      1.328257   222A      1.343237  
     223A      1.347574   224A      1.356793   225A      1.379165  
     226A      1.382582   227A      1.394340   228A      1.403822  
     229A      1.425488   230A      1.438328   231A      1.450845  
     232A      1.454764   233A      1.463563   234A      1.472073  
     235A      1.474148   236A      1.482991   237A      1.483795  
     238A      1.505254   239A      1.536153   240A      1.536448  
     241A      1.537847   242A      1.548835   243A      1.563230  
     244A      1.591265   245A      1.599994   246A      1.606848  
     247A      1.614118   248A      1.644680   249A      1.666019  
     250A      1.694381   251A      1.696797   252A      1.710978  
     253A      1.720957   254A      1.722863   255A      1.722998  
     256A      1.729249   257A      1.757329   258A      1.759254  
     259A      1.777750   260A      1.794930   261A      1.801744  
     262A      1.805356   263A      1.818363   264A      1.836540  
     265A      1.838773   266A      1.840017   267A      1.843892  
     268A      1.861784   269A      1.868106   270A      1.868572  
     271A      1.891671   272A      1.917848   273A      1.921056  
     274A      1.938030   275A      1.940259   276A      1.974515  
     277A      1.992449   278A      1.995324   279A      1.999325  
     280A      2.024014   281A      2.037852   282A      2.038666  
     283A      2.041378   284A      2.047910   285A      2.060966  
     286A      2.073364   287A      2.085173   288A      2.089783  
     289A      2.101026   290A      2.107981   291A      2.113267  
     292A      2.128024   293A      2.133838   294A      2.150484  
     295A      2.158959   296A      2.214824   297A      2.229327  
     298A      2.254752   299A      2.269140   300A      2.274502  
     301A      2.281676   302A      2.328656   303A      2.341519  
     304A      2.359028   305A      2.360163   306A      2.360350  
     307A      2.367559   308A      2.398946   309A      2.401106  
     310A      2.430608   311A      2.433583   312A      2.465307  
     313A      2.466783   314A      2.471346   315A      2.503048  
     316A      2.516596   317A      2.519045   318A      2.535989  
     319A      2.543577   320A      2.566300   321A      2.569330  
     322A      2.592524   323A      2.596855   324A      2.598094  
     325A      2.672521   326A      2.728542   327A      2.729286  
     328A      2.750144   329A      2.762402   330A      2.780152  
     331A      2.787825   332A      2.820752   333A      2.828456  
     334A      2.839056   335A      2.848626   336A      2.983557  
     337A      3.070236   338A      3.087974   339A      3.118902  
     340A      3.125522   341A      3.211846   342A      3.220003  
     343A      3.266618   344A      3.270189   345A      3.311752  
     346A      3.326045   347A      3.359977   348A      3.373886  
     349A      3.375412   350A      3.381595   351A      3.382266  
     352A      3.397229   353A      3.416713   354A      3.419587  
     355A      3.433796   356A      3.442345   357A      3.460092  
     358A      3.474003   359A      3.483110   360A      3.504331  
     361A      3.543208   362A      3.545606   363A      3.568352  
     364A      3.609106   365A      3.625039   366A      3.627237  
     367A      3.637677   368A      3.648860   369A      3.669450  
     370A      3.675475   371A      3.685197   372A      3.701186  
     373A      3.709656   374A      3.769783   375A      3.785200  
     376A      3.811916   377A      3.814787   378A      3.819150  
     379A      3.829794   380A      3.835299   381A      3.844050  
     382A      3.846068   383A      3.857959   384A      3.901429  
     385A      3.907165   386A      3.916980   387A      3.957665  
     388A      3.960840   389A      3.969446   390A      3.990539  
     391A      3.992130   392A      4.006612   393A      4.013321  
     394A      4.045937   395A      4.046699   396A      4.059964  
     397A      4.067933   398A      4.099943   399A      4.104986  
     400A      4.108953   401A      4.115906   402A      4.133297  
     403A      4.136535   404A      4.152597   405A      4.163564  
     406A      4.173610   407A      4.200355   408A      4.206541  
     409A      4.275419   410A      4.292397   411A      4.301000  
     412A      4.303042   413A      4.307982   414A      4.335108  
     415A      4.348346   416A      4.371051   417A      4.374848  
     418A      4.377542   419A      4.390281   420A      4.412614  
     421A      4.423657   422A      4.452772   423A      4.455887  
     424A      4.459672   425A      4.464852   426A      4.469592  
     427A      4.493167   428A      4.495058   429A      4.496793  
     430A      4.501810   431A      4.540746   432A      4.561702  
     433A      4.580626   434A      4.599072   435A      4.637243  
     436A      4.678965   437A      4.694360   438A      4.706368  
     439A      4.731787   440A      4.752273   441A      4.760023  
     442A      4.771244   443A      4.791509   444A      4.805040  
     445A      4.829022   446A      4.839961   447A      4.872933  
     448A      4.888994   449A      4.924621   450A      4.924897  
     451A      5.010109   452A      5.011340   453A      5.027805  
     454A      5.038291   455A      5.054857   456A      5.077661  
     457A      5.090336   458A      5.113143   459A      5.124776  
     460A      5.144026   461A      5.149341   462A      5.170817  
     463A      5.175505   464A      5.176628   465A      5.184100  
     466A      5.187624   467A      5.206258   468A      5.235635  
     469A      5.241878   470A      5.297021   471A      5.336041  
     472A      5.343744   473A      5.353471   474A      5.410645  
     475A      5.436525   476A      5.438100   477A      5.441113  
     478A      5.450639   479A      5.550253   480A      5.556529  
     481A      5.669175   482A      5.752993   483A      5.790930  
     484A      5.794525   485A      5.812249   486A      5.851026  
     487A      5.881503   488A      5.978626   489A      6.070089  
     490A      6.211893   491A      6.261323   492A      6.264506  
     493A      6.265698   494A      6.375507   495A      6.391870  
     496A      6.396377   497A      6.650821   498A      6.679992  
     499A      6.870879   500A      6.884676   501A      7.020943  
     502A      7.223431   503A      7.435259   504A      8.321084  
     505A     16.061104   506A     16.081406   507A     18.915896  
     508A     19.478635   509A     19.574199   510A     19.829421  

    Final Occupation by Irrep:
              A 
    DOCC [    30 ]

  @DF-RHF Final Energy:  -629.48627893911862

   => Energetics <=

    Nuclear Repulsion Energy =            326.9862839531564305
    One-Electron Energy =               -1511.1404729924165622
    Two-Electron Energy =                 554.6679101001413983
    Total Energy =                       -629.4862789391186197

Computation Completed


Properties will be evaluated at   0.000000,   0.000000,   0.000000 [a0]

Properties computed using the SCF density matrix

  Nuclear Dipole Moment: [e a0]
     X:     0.0000      Y:    -0.0000      Z:     2.9245

  Electronic Dipole Moment: [e a0]
     X:    -0.0000      Y:     0.0000      Z:    -2.2146

  Dipole Moment: [e a0]
     X:    -0.0000      Y:     0.0000      Z:     0.7100     Total:     0.7100

  Dipole Moment: [D]
     X:    -0.0000      Y:     0.0000      Z:     1.8045     Total:     1.8045


*** tstop() called on node51.bme.utexas.edu at Tue Sep 10 10:43:31 2019
Module time:
	user time   =     133.80 seconds =       2.23 minutes
	system time =       2.74 seconds =       0.05 minutes
	total time  =         46 seconds =       0.77 minutes
Total time:
	user time   =     133.80 seconds =       2.23 minutes
	system time =       2.74 seconds =       0.05 minutes
	total time  =         46 seconds =       0.77 minutes

  //>>>>>>>>>>>>>>>>>>>>>>>>>>>>>>>>>>>//
  //            Monomer A HF           //
  //<<<<<<<<<<<<<<<<<<<<<<<<<<<<<<<<<<<//


*** tstart() called on node51.bme.utexas.edu
*** at Tue Sep 10 10:43:31 2019

   => Loading Basis Set <=

    Name: AUG-CC-PVTZ
    Role: ORBITAL
    Keyword: BASIS
    atoms 1-6         entry C          line   235 file /home/xy3866/psi4conda/share/psi4/basis/aug-cc-pvtz.gbs 
    atoms 7-12, 14-15 entry H          line    36 file /home/xy3866/psi4conda/share/psi4/basis/aug-cc-pvtz.gbs 
    atoms 13          entry S          line   902 file /home/xy3866/psi4conda/share/psi4/basis/aug-cc-pvtz.gbs 


         ---------------------------------------------------------
                                   SCF
               by Justin Turney, Rob Parrish, Andy Simmonett
                          and Daniel G. A. Smith
                              RHF Reference
                        4 Threads,  30517 MiB Core
         ---------------------------------------------------------

  ==> Geometry <==

    Molecular point group: c1
    Full point group: C2v

    Geometry (in Angstrom), charge = 0, multiplicity = 1:

       Center              X                  Y                   Z               Mass       
    ------------   -----------------  -----------------  -----------------  -----------------
         C            0.000000000000    -1.393658000000     1.008874881301    12.000000000000
         C            1.207737000000    -0.696816000000     1.007649881301    12.000000000000
         C            1.207737000000     0.696816000000     1.007649881301    12.000000000000
         C            0.000000000000     1.393658000000     1.008874881301    12.000000000000
         C           -1.207737000000     0.696816000000     1.007649881301    12.000000000000
         C           -1.207737000000    -0.696816000000     1.007649881301    12.000000000000
         H            0.000000000000    -2.475320000000     1.014148881301     1.007825032230
         H            2.144314000000    -1.237314000000     1.006750881301     1.007825032230
         H            2.144314000000     1.237314000000     1.006750881301     1.007825032230
         H            0.000000000000     2.475320000000     1.014148881301     1.007825032230
         H           -2.144314000000     1.237314000000     1.006750881301     1.007825032230
         H           -2.144314000000    -1.237314000000     1.006750881301     1.007825032230
      Gh(S)           0.000000000000     0.000000000000    -2.370552018699    31.972071174400
      Gh(H)           0.000000000000     0.954437000000    -1.434484018699     1.007825032230
      Gh(H)           0.000000000000    -0.954437000000    -1.434484018699     1.007825032230

  Running in c1 symmetry.

  Rotational constants: A =      0.09427  B =      0.04793  C =      0.04770 [cm^-1]
  Rotational constants: A =   2826.03195  B =   1437.00218  C =   1429.97187 [MHz]
  Nuclear repulsion =  203.653891607934128

  Charge       = 0
  Multiplicity = 1
  Electrons    = 42
  Nalpha       = 21
  Nbeta        = 21

  ==> Algorithm <==

  SCF Algorithm Type is DF.
  DIIS enabled.
  MOM disabled.
  Fractional occupation disabled.
  Guess Type is SAD.
  Energy threshold   = 1.00e-08
  Density threshold  = 1.00e-08
  Integral threshold = 0.00e+00

  ==> Primary Basis <==

  Basis Set: AUG-CC-PVTZ
    Blend: AUG-CC-PVTZ
    Number of shells: 172
    Number of basis function: 510
    Number of Cartesian functions: 589
    Spherical Harmonics?: true
    Max angular momentum: 3

   => Loading Basis Set <=

    Name: (AUG-CC-PVTZ AUX)
    Role: JKFIT
    Keyword: DF_BASIS_SCF
    atoms 1-6         entry C          line   162 file /home/xy3866/psi4conda/share/psi4/basis/aug-cc-pvtz-jkfit.gbs 
    atoms 7-12, 14-15 entry H          line    70 file /home/xy3866/psi4conda/share/psi4/basis/aug-cc-pvtz-jkfit.gbs 
    atoms 13          entry S          line   730 file /home/xy3866/psi4conda/share/psi4/basis/aug-cc-pvtz-jkfit.gbs 

  ==> Pre-Iterations <==

   -------------------------------------------------------
    Irrep   Nso     Nmo     Nalpha   Nbeta   Ndocc  Nsocc
   -------------------------------------------------------
     A        510     510       0       0       0       0
   -------------------------------------------------------
    Total     510     510      21      21      21       0
   -------------------------------------------------------

  ==> Integral Setup <==

  ==> DiskDFJK: Density-Fitted J/K Matrices <==

    J tasked:                  Yes
    K tasked:                  Yes
    wK tasked:                  No
    OpenMP threads:              4
    Integrals threads:           4
    Memory [MiB]:            22888
    Algorithm:                Core
    Integral Cache:           LOAD
    Schwarz Cutoff:          1E-12
    Fitting Condition:       1E-10

   => Auxiliary Basis Set <=

  Basis Set: (AUG-CC-PVTZ AUX)
    Blend: AUG-CC-PVTZ-JKFIT
    Number of shells: 334
    Number of basis function: 1138
    Number of Cartesian functions: 1406
    Spherical Harmonics?: true
    Max angular momentum: 4

  Minimum eigenvalue in the overlap matrix is 2.6358721008E-07.
  Using Symmetric Orthogonalization.

  SCF Guess: Superposition of Atomic Densities via on-the-fly atomic UHF.

  ==> Iterations <==

                           Total Energy        Delta E     RMS |[F,P]|

   @DF-RHF iter SAD:  -230.19001614675369   -2.30190e+02   0.00000e+00 
   @DF-RHF iter   1:  -230.60097541112509   -4.10959e-01   1.07230e-03 DIIS
   @DF-RHF iter   2:  -230.74295298741228   -1.41978e-01   5.31734e-04 DIIS
   @DF-RHF iter   3:  -230.77984401439880   -3.68910e-02   8.49938e-05 DIIS
   @DF-RHF iter   4:  -230.78139219325183   -1.54818e-03   1.05059e-05 DIIS
   @DF-RHF iter   5:  -230.78142113020235   -2.89370e-05   1.91521e-06 DIIS
   @DF-RHF iter   6:  -230.78142215417535   -1.02397e-06   2.18620e-07 DIIS
   @DF-RHF iter   7:  -230.78142216992700   -1.57517e-08   3.46015e-08 DIIS
   @DF-RHF iter   8:  -230.78142217024902   -3.22018e-10   1.47882e-08 DIIS
   @DF-RHF iter   9:  -230.78142217029233   -4.33147e-11   2.99441e-09 DIIS
  Energy and wave function converged.


  ==> Post-Iterations <==

    Orbital Energies [Eh]
    ---------------------

    Doubly Occupied:                                                      

       1A    -11.236360     2A    -11.235812     3A    -11.235755  
       4A    -11.234570     5A    -11.234508     6A    -11.233932  
       7A     -1.150205     8A     -1.014907     9A     -1.014529  
      10A     -0.824194    11A     -0.824024    12A     -0.709606  
      13A     -0.644238    14A     -0.619025    15A     -0.588273  
      16A     -0.587868    17A     -0.502283    18A     -0.494952  
      19A     -0.494859    20A     -0.336881    21A     -0.336606  

    Virtual:                                                              

      22A      0.027819    23A      0.034489    24A      0.034616  
      25A      0.043669    26A      0.048022    27A      0.048045  
      28A      0.060781    29A      0.064507    30A      0.093884  
      31A      0.096376    32A      0.102283    33A      0.102306  
      34A      0.109865    35A      0.111380    36A      0.112943  
      37A      0.121831    38A      0.125009    39A      0.127490  
      40A      0.127720    41A      0.127902    42A      0.131234  
      43A      0.136751    44A      0.152689    45A      0.154972  
      46A      0.155297    47A      0.157098    48A      0.158134  
      49A      0.158199    50A      0.160406    51A      0.168558  
      52A      0.169823    53A      0.194440    54A      0.231205  
      55A      0.244277    56A      0.244933    57A      0.249835  
      58A      0.253725    59A      0.254551    60A      0.287834  
      61A      0.288513    62A      0.293282    63A      0.297772  
      64A      0.300112    65A      0.303695    66A      0.310673  
      67A      0.313321    68A      0.316163    69A      0.326421  
      70A      0.328799    71A      0.332627    72A      0.340181  
      73A      0.340977    74A      0.348342    75A      0.349225  
      76A      0.349940    77A      0.361708    78A      0.363767  
      79A      0.368196    80A      0.372647    81A      0.380179  
      82A      0.392006    83A      0.397212    84A      0.399707  
      85A      0.401258    86A      0.405135    87A      0.421630  
      88A      0.453829    89A      0.454869    90A      0.455313  
      91A      0.457043    92A      0.464702    93A      0.465154  
      94A      0.473347    95A      0.481360    96A      0.485275  
      97A      0.486930    98A      0.489336    99A      0.499724  
     100A      0.501478   101A      0.505442   102A      0.511119  
     103A      0.516376   104A      0.525197   105A      0.529108  
     106A      0.530532   107A      0.533903   108A      0.537433  
     109A      0.545268   110A      0.560722   111A      0.562133  
     112A      0.575209   113A      0.577060   114A      0.583437  
     115A      0.600454   116A      0.611683   117A      0.635904  
     118A      0.636817   119A      0.647199   120A      0.656283  
     121A      0.657539   122A      0.659313   123A      0.662340  
     124A      0.662705   125A      0.663812   126A      0.684476  
     127A      0.701603   128A      0.703184   129A      0.709285  
     130A      0.717655   131A      0.721886   132A      0.733311  
     133A      0.747494   134A      0.755553   135A      0.756613  
     136A      0.773612   137A      0.793833   138A      0.798163  
     139A      0.798610   140A      0.808932   141A      0.819450  
     142A      0.828681   143A      0.831391   144A      0.836920  
     145A      0.853964   146A      0.858298   147A      0.867391  
     148A      0.873834   149A      0.874702   150A      0.879549  
     151A      0.891218   152A      0.904017   153A      0.905649  
     154A      0.909216   155A      0.911120   156A      0.916425  
     157A      0.921733   158A      0.935600   159A      0.964345  
     160A      0.968212   161A      0.989654   162A      0.995039  
     163A      0.998917   164A      1.005964   165A      1.018401  
     166A      1.045202   167A      1.051314   168A      1.058714  
     169A      1.063494   170A      1.072492   171A      1.072772  
     172A      1.076238   173A      1.099923   174A      1.101632  
     175A      1.102571   176A      1.106099   177A      1.107113  
     178A      1.116339   179A      1.120732   180A      1.121732  
     181A      1.123816   182A      1.143132   183A      1.147105  
     184A      1.152044   185A      1.152448   186A      1.157931  
     187A      1.158484   188A      1.160278   189A      1.167315  
     190A      1.172126   191A      1.184945   192A      1.188458  
     193A      1.203472   194A      1.208527   195A      1.213074  
     196A      1.221023   197A      1.222018   198A      1.227500  
     199A      1.233089   200A      1.255877   201A      1.263347  
     202A      1.268401   203A      1.271478   204A      1.289548  
     205A      1.296232   206A      1.298806   207A      1.299745  
     208A      1.310104   209A      1.325306   210A      1.330993  
     211A      1.355292   212A      1.360062   213A      1.364628  
     214A      1.372983   215A      1.374142   216A      1.387426  
     217A      1.404465   218A      1.405791   219A      1.417667  
     220A      1.418078   221A      1.430487   222A      1.437732  
     223A      1.463914   224A      1.465636   225A      1.470480  
     226A      1.483864   227A      1.496678   228A      1.497520  
     229A      1.505714   230A      1.527666   231A      1.538154  
     232A      1.549394   233A      1.554411   234A      1.569216  
     235A      1.595853   236A      1.597249   237A      1.664054  
     238A      1.673828   239A      1.676469   240A      1.678893  
     241A      1.684398   242A      1.702257   243A      1.702497  
     244A      1.716822   245A      1.733486   246A      1.740844  
     247A      1.751968   248A      1.754175   249A      1.764119  
     250A      1.768974   251A      1.776447   252A      1.809033  
     253A      1.818457   254A      1.830007   255A      1.841227  
     256A      1.849144   257A      1.849616   258A      1.862963  
     259A      1.877412   260A      1.879736   261A      1.887027  
     262A      1.927716   263A      1.931287   264A      1.967264  
     265A      1.970901   266A      1.991275   267A      1.991706  
     268A      2.004388   269A      2.009255   270A      2.015229  
     271A      2.016092   272A      2.035356   273A      2.040605  
     274A      2.061342   275A      2.070639   276A      2.078997  
     277A      2.079909   278A      2.097300   279A      2.109144  
     280A      2.122607   281A      2.137837   282A      2.138895  
     283A      2.150941   284A      2.161040   285A      2.202966  
     286A      2.218775   287A      2.237157   288A      2.249656  
     289A      2.281621   290A      2.283486   291A      2.311128  
     292A      2.331034   293A      2.350281   294A      2.352071  
     295A      2.365707   296A      2.378449   297A      2.391695  
     298A      2.401114   299A      2.422021   300A      2.431357  
     301A      2.466015   302A      2.475464   303A      2.502442  
     304A      2.526677   305A      2.528736   306A      2.572719  
     307A      2.574880   308A      2.582116   309A      2.607024  
     310A      2.608666   311A      2.616719   312A      2.751710  
     313A      2.755588   314A      2.765849   315A      2.794747  
     316A      2.846603   317A      2.848811   318A      2.920902  
     319A      3.011360   320A      3.041115   321A      3.072053  
     322A      3.097638   323A      3.102397   324A      3.124462  
     325A      3.128730   326A      3.208655   327A      3.250490  
     328A      3.261630   329A      3.291882   330A      3.295758  
     331A      3.315252   332A      3.316716   333A      3.362323  
     334A      3.365608   335A      3.379964   336A      3.386878  
     337A      3.390584   338A      3.390808   339A      3.413384  
     340A      3.449067   341A      3.459910   342A      3.470082  
     343A      3.492412   344A      3.493473   345A      3.497292  
     346A      3.521749   347A      3.545672   348A      3.552100  
     349A      3.553137   350A      3.600474   351A      3.605899  
     352A      3.631732   353A      3.632915   354A      3.640131  
     355A      3.651445   356A      3.668382   357A      3.675977  
     358A      3.682528   359A      3.703740   360A      3.707352  
     361A      3.710292   362A      3.734723   363A      3.743896  
     364A      3.757540   365A      3.779493   366A      3.799613  
     367A      3.822240   368A      3.825727   369A      3.843856  
     370A      3.846460   371A      3.854139   372A      3.881055  
     373A      3.900131   374A      3.911486   375A      3.922896  
     376A      3.928379   377A      3.930328   378A      3.949796  
     379A      3.971213   380A      3.984620   381A      4.007007  
     382A      4.015126   383A      4.022647   384A      4.043876  
     385A      4.055881   386A      4.057535   387A      4.067576  
     388A      4.079167   389A      4.092641   390A      4.111658  
     391A      4.117078   392A      4.138964   393A      4.148192  
     394A      4.153818   395A      4.173255   396A      4.182599  
     397A      4.216759   398A      4.232942   399A      4.280809  
     400A      4.303012   401A      4.315037   402A      4.342750  
     403A      4.358775   404A      4.360477   405A      4.373356  
     406A      4.383455   407A      4.393134   408A      4.394175  
     409A      4.416814   410A      4.428435   411A      4.428477  
     412A      4.464074   413A      4.464233   414A      4.472293  
     415A      4.475188   416A      4.489176   417A      4.508743  
     418A      4.510366   419A      4.512182   420A      4.528168  
     421A      4.565656   422A      4.604841   423A      4.621435  
     424A      4.685051   425A      4.703271   426A      4.732640  
     427A      4.733711   428A      4.745961   429A      4.753622  
     430A      4.796573   431A      4.819159   432A      4.837773  
     433A      4.867100   434A      4.884554   435A      4.889278  
     436A      4.915054   437A      4.933339   438A      4.943827  
     439A      4.957404   440A      4.961452   441A      4.978948  
     442A      5.031802   443A      5.038235   444A      5.089878  
     445A      5.102217   446A      5.104188   447A      5.132062  
     448A      5.147438   449A      5.171842   450A      5.173528  
     451A      5.182701   452A      5.183428   453A      5.189158  
     454A      5.203137   455A      5.208691   456A      5.217067  
     457A      5.233987   458A      5.246343   459A      5.270662  
     460A      5.293043   461A      5.314206   462A      5.347246  
     463A      5.367529   464A      5.369445   465A      5.386122  
     466A      5.425918   467A      5.448607   468A      5.448978  
     469A      5.450003   470A      5.452956   471A      5.490495  
     472A      5.561461   473A      5.573978   474A      5.758124  
     475A      5.763857   476A      5.800194   477A      5.806455  
     478A      5.808542   479A      5.860628   480A      5.891355  
     481A      5.987365   482A      6.024391   483A      6.087255  
     484A      6.222988   485A      6.274390   486A      6.275515  
     487A      6.277097   488A      6.385547   489A      6.400321  
     490A      6.407817   491A      6.660960   492A      6.689805  
     493A      6.870060   494A      6.891776   495A      6.894282  
     496A      6.939605   497A      7.030968   498A      7.233386  
     499A      7.445266   500A     15.684637   501A     16.071009  
     502A     16.092041   503A     18.927714   504A     19.487731  
     505A     19.584562   506A     19.837677   507A     24.195793  
     508A     24.929767   509A     25.226454   510A    141.740001  

    Final Occupation by Irrep:
              A 
    DOCC [    21 ]

  @DF-RHF Final Energy:  -230.78142217029233

   => Energetics <=

    Nuclear Repulsion Energy =            203.6538916079341277
    One-Electron Energy =                -713.7638572269070210
    Two-Electron Energy =                 279.3285434486805343
    Total Energy =                       -230.7814221702923305

Computation Completed


Properties will be evaluated at   0.000000,   0.000000,   0.000000 [a0]

Properties computed using the SCF density matrix

  Nuclear Dipole Moment: [e a0]
     X:     0.0000      Y:    -0.0000      Z:    80.0212

  Electronic Dipole Moment: [e a0]
     X:    -0.0000      Y:     0.0000      Z:   -80.0192

  Dipole Moment: [e a0]
     X:    -0.0000      Y:     0.0000      Z:     0.0021     Total:     0.0021

  Dipole Moment: [D]
     X:    -0.0000      Y:     0.0000      Z:     0.0052     Total:     0.0052


*** tstop() called on node51.bme.utexas.edu at Tue Sep 10 10:43:53 2019
Module time:
	user time   =      79.84 seconds =       1.33 minutes
	system time =       1.55 seconds =       0.03 minutes
	total time  =         22 seconds =       0.37 minutes
Total time:
	user time   =     213.65 seconds =       3.56 minutes
	system time =       4.29 seconds =       0.07 minutes
	total time  =         68 seconds =       1.13 minutes

  //>>>>>>>>>>>>>>>>>>>>>>>>>>>>>>>>>>>//
  //            Monomer B HF           //
  //<<<<<<<<<<<<<<<<<<<<<<<<<<<<<<<<<<<//


*** tstart() called on node51.bme.utexas.edu
*** at Tue Sep 10 10:43:53 2019

   => Loading Basis Set <=

    Name: AUG-CC-PVTZ
    Role: ORBITAL
    Keyword: BASIS
    atoms 1-6         entry C          line   235 file /home/xy3866/psi4conda/share/psi4/basis/aug-cc-pvtz.gbs 
    atoms 7-12, 14-15 entry H          line    36 file /home/xy3866/psi4conda/share/psi4/basis/aug-cc-pvtz.gbs 
    atoms 13          entry S          line   902 file /home/xy3866/psi4conda/share/psi4/basis/aug-cc-pvtz.gbs 


         ---------------------------------------------------------
                                   SCF
               by Justin Turney, Rob Parrish, Andy Simmonett
                          and Daniel G. A. Smith
                              RHF Reference
                        4 Threads,  30517 MiB Core
         ---------------------------------------------------------

  ==> Geometry <==

    Molecular point group: c1
    Full point group: C2v

    Geometry (in Angstrom), charge = 0, multiplicity = 1:

       Center              X                  Y                   Z               Mass       
    ------------   -----------------  -----------------  -----------------  -----------------
      Gh(C)           0.000000000000    -1.393658000000     1.008874881301    12.000000000000
      Gh(C)           1.207737000000    -0.696816000000     1.007649881301    12.000000000000
      Gh(C)           1.207737000000     0.696816000000     1.007649881301    12.000000000000
      Gh(C)           0.000000000000     1.393658000000     1.008874881301    12.000000000000
      Gh(C)          -1.207737000000     0.696816000000     1.007649881301    12.000000000000
      Gh(C)          -1.207737000000    -0.696816000000     1.007649881301    12.000000000000
      Gh(H)           0.000000000000    -2.475320000000     1.014148881301     1.007825032230
      Gh(H)           2.144314000000    -1.237314000000     1.006750881301     1.007825032230
      Gh(H)           2.144314000000     1.237314000000     1.006750881301     1.007825032230
      Gh(H)           0.000000000000     2.475320000000     1.014148881301     1.007825032230
      Gh(H)          -2.144314000000     1.237314000000     1.006750881301     1.007825032230
      Gh(H)          -2.144314000000    -1.237314000000     1.006750881301     1.007825032230
         S            0.000000000000     0.000000000000    -2.370552018699    31.972071174400
         H            0.000000000000     0.954437000000    -1.434484018699     1.007825032230
         H            0.000000000000    -0.954437000000    -1.434484018699     1.007825032230

  Running in c1 symmetry.

  Rotational constants: A =      0.09427  B =      0.04793  C =      0.04770 [cm^-1]
  Rotational constants: A =   2826.03195  B =   1437.00218  C =   1429.97187 [MHz]
  Nuclear repulsion =   12.944044801570232

  Charge       = 0
  Multiplicity = 1
  Electrons    = 18
  Nalpha       = 9
  Nbeta        = 9

  ==> Algorithm <==

  SCF Algorithm Type is DF.
  DIIS enabled.
  MOM disabled.
  Fractional occupation disabled.
  Guess Type is SAD.
  Energy threshold   = 1.00e-08
  Density threshold  = 1.00e-08
  Integral threshold = 0.00e+00

  ==> Primary Basis <==

  Basis Set: AUG-CC-PVTZ
    Blend: AUG-CC-PVTZ
    Number of shells: 172
    Number of basis function: 510
    Number of Cartesian functions: 589
    Spherical Harmonics?: true
    Max angular momentum: 3

   => Loading Basis Set <=

    Name: (AUG-CC-PVTZ AUX)
    Role: JKFIT
    Keyword: DF_BASIS_SCF
    atoms 1-6         entry C          line   162 file /home/xy3866/psi4conda/share/psi4/basis/aug-cc-pvtz-jkfit.gbs 
    atoms 7-12, 14-15 entry H          line    70 file /home/xy3866/psi4conda/share/psi4/basis/aug-cc-pvtz-jkfit.gbs 
    atoms 13          entry S          line   730 file /home/xy3866/psi4conda/share/psi4/basis/aug-cc-pvtz-jkfit.gbs 

  ==> Pre-Iterations <==

   -------------------------------------------------------
    Irrep   Nso     Nmo     Nalpha   Nbeta   Ndocc  Nsocc
   -------------------------------------------------------
     A        510     510       0       0       0       0
   -------------------------------------------------------
    Total     510     510       9       9       9       0
   -------------------------------------------------------

  ==> Integral Setup <==

  ==> DiskDFJK: Density-Fitted J/K Matrices <==

    J tasked:                  Yes
    K tasked:                  Yes
    wK tasked:                  No
    OpenMP threads:              4
    Integrals threads:           4
    Memory [MiB]:            22888
    Algorithm:                Core
    Integral Cache:           LOAD
    Schwarz Cutoff:          1E-12
    Fitting Condition:       1E-10

   => Auxiliary Basis Set <=

  Basis Set: (AUG-CC-PVTZ AUX)
    Blend: AUG-CC-PVTZ-JKFIT
    Number of shells: 334
    Number of basis function: 1138
    Number of Cartesian functions: 1406
    Spherical Harmonics?: true
    Max angular momentum: 4

  Minimum eigenvalue in the overlap matrix is 2.6358721008E-07.
  Using Symmetric Orthogonalization.

  SCF Guess: Superposition of Atomic Densities via on-the-fly atomic UHF.

  ==> Iterations <==

                           Total Energy        Delta E     RMS |[F,P]|

   @DF-RHF iter SAD:  -398.42061468404853   -3.98421e+02   0.00000e+00 
   @DF-RHF iter   1:  -398.67949994072393   -2.58885e-01   4.21782e-04 DIIS
   @DF-RHF iter   2:  -398.70928339876940   -2.97835e-02   1.59378e-04 DIIS
   @DF-RHF iter   3:  -398.71301614908458   -3.73275e-03   3.90910e-05 DIIS
   @DF-RHF iter   4:  -398.71371982705932   -7.03678e-04   7.74175e-06 DIIS
   @DF-RHF iter   5:  -398.71374975725945   -2.99302e-05   1.14604e-06 DIIS
   @DF-RHF iter   6:  -398.71375033859891   -5.81339e-07   2.92678e-07 DIIS
   @DF-RHF iter   7:  -398.71375037896621   -4.03673e-08   7.39195e-08 DIIS
   @DF-RHF iter   8:  -398.71375038154582   -2.57961e-09   1.31297e-08 DIIS
   @DF-RHF iter   9:  -398.71375038161023   -6.44036e-11   2.54550e-09 DIIS
  Energy and wave function converged.


  ==> Post-Iterations <==

    Orbital Energies [Eh]
    ---------------------

    Doubly Occupied:                                                      

       1A    -91.967042     2A     -8.969046     3A     -6.650317  
       4A     -6.649547     5A     -6.648248     6A     -0.982606  
       7A     -0.587463     8A     -0.503577     9A     -0.385506  

    Virtual:                                                              

      10A      0.016850    11A      0.029853    12A      0.031829  
      13A      0.045928    14A      0.047397    15A      0.047905  
      16A      0.059455    17A      0.064955    18A      0.070200  
      19A      0.089191    20A      0.090025    21A      0.091402  
      22A      0.102769    23A      0.105251    24A      0.116926  
      25A      0.120312    26A      0.120870    27A      0.123386  
      28A      0.124036    29A      0.125498    30A      0.126828  
      31A      0.144993    32A      0.150146    33A      0.152843  
      34A      0.156940    35A      0.157052    36A      0.160958  
      37A      0.167966    38A      0.168981    39A      0.172790  
      40A      0.178796    41A      0.191677    42A      0.209840  
      43A      0.217580    44A      0.218032    45A      0.225022  
      46A      0.232540    47A      0.245424    48A      0.258468  
      49A      0.270267    50A      0.273640    51A      0.282842  
      52A      0.298758    53A      0.302568    54A      0.305090  
      55A      0.313693    56A      0.313919    57A      0.316576  
      58A      0.322432    59A      0.328570    60A      0.334179  
      61A      0.335337    62A      0.351339    63A      0.352433  
      64A      0.360392    65A      0.361052    66A      0.362932  
      67A      0.368745    68A      0.379005    69A      0.380591  
      70A      0.389961    71A      0.391539    72A      0.397565  
      73A      0.403372    74A      0.404162    75A      0.424040  
      76A      0.424932    77A      0.426569    78A      0.430601  
      79A      0.442269    80A      0.442582    81A      0.455275  
      82A      0.469029    83A      0.469856    84A      0.483946  
      85A      0.489448    86A      0.500272    87A      0.507286  
      88A      0.512087    89A      0.516913    90A      0.518723  
      91A      0.529448    92A      0.546422    93A      0.548407  
      94A      0.549515    95A      0.556865    96A      0.560305  
      97A      0.576603    98A      0.588077    99A      0.589399  
     100A      0.592475   101A      0.614561   102A      0.614870  
     103A      0.619786   104A      0.632139   105A      0.635637  
     106A      0.640990   107A      0.656038   108A      0.661767  
     109A      0.664171   110A      0.664390   111A      0.670556  
     112A      0.672763   113A      0.680194   114A      0.693945  
     115A      0.697566   116A      0.701092   117A      0.708749  
     118A      0.709745   119A      0.710397   120A      0.711272  
     121A      0.720730   122A      0.732903   123A      0.742491  
     124A      0.749936   125A      0.762274   126A      0.765227  
     127A      0.770149   128A      0.787880   129A      0.789903  
     130A      0.800516   131A      0.808397   132A      0.826597  
     133A      0.830453   134A      0.836448   135A      0.848233  
     136A      0.871394   137A      0.883536   138A      0.888088  
     139A      0.890359   140A      0.901325   141A      0.901478  
     142A      0.904361   143A      0.921854   144A      0.942271  
     145A      0.945707   146A      0.977399   147A      0.983553  
     148A      0.988086   149A      1.016327   150A      1.029957  
     151A      1.033050   152A      1.034785   153A      1.035515  
     154A      1.042934   155A      1.052295   156A      1.058330  
     157A      1.080082   158A      1.080091   159A      1.084959  
     160A      1.089053   161A      1.090968   162A      1.124415  
     163A      1.129249   164A      1.129798   165A      1.132163  
     166A      1.143671   167A      1.160235   168A      1.161205  
     169A      1.162713   170A      1.179448   171A      1.187007  
     172A      1.189422   173A      1.199232   174A      1.206084  
     175A      1.208674   176A      1.221867   177A      1.229849  
     178A      1.234286   179A      1.250266   180A      1.251252  
     181A      1.257068   182A      1.268554   183A      1.268934  
     184A      1.269812   185A      1.271919   186A      1.283878  
     187A      1.303288   188A      1.304074   189A      1.304785  
     190A      1.311130   191A      1.314020   192A      1.314996  
     193A      1.337694   194A      1.343253   195A      1.352081  
     196A      1.361905   197A      1.374040   198A      1.379534  
     199A      1.388422   200A      1.401675   201A      1.408213  
     202A      1.408724   203A      1.413615   204A      1.433609  
     205A      1.454615   206A      1.486363   207A      1.488068  
     208A      1.488404   209A      1.509267   210A      1.515595  
     211A      1.527137   212A      1.537079   213A      1.537379  
     214A      1.552509   215A      1.553208   216A      1.555942  
     217A      1.560959   218A      1.568864   219A      1.575059  
     220A      1.599073   221A      1.604973   222A      1.620354  
     223A      1.623304   224A      1.628585   225A      1.637860  
     226A      1.649883   227A      1.649980   228A      1.665905  
     229A      1.675297   230A      1.693750   231A      1.702697  
     232A      1.712281   233A      1.714630   234A      1.718332  
     235A      1.767341   236A      1.784090   237A      1.791240  
     238A      1.813187   239A      1.833799   240A      1.853967  
     241A      1.859627   242A      1.871447   243A      1.889746  
     244A      1.890692   245A      1.905071   246A      1.908872  
     247A      1.917759   248A      1.918919   249A      1.964356  
     250A      1.988561   251A      1.995569   252A      2.017835  
     253A      2.020837   254A      2.030397   255A      2.069794  
     256A      2.101940   257A      2.107827   258A      2.113005  
     259A      2.125120   260A      2.150768   261A      2.171979  
     262A      2.177314   263A      2.183123   264A      2.186830  
     265A      2.189397   266A      2.201706   267A      2.217035  
     268A      2.225918   269A      2.232888   270A      2.252419  
     271A      2.285469   272A      2.286492   273A      2.313089  
     274A      2.322119   275A      2.324076   276A      2.336548  
     277A      2.336833   278A      2.336981   279A      2.344983  
     280A      2.379474   281A      2.383013   282A      2.391073  
     283A      2.399802   284A      2.419231   285A      2.425596  
     286A      2.432843   287A      2.441540   288A      2.476932  
     289A      2.496542   290A      2.504073   291A      2.507023  
     292A      2.515232   293A      2.527336   294A      2.532989  
     295A      2.540862   296A      2.542296   297A      2.545287  
     298A      2.556685   299A      2.561603   300A      2.570294  
     301A      2.572480   302A      2.598927   303A      2.612974  
     304A      2.617948   305A      2.673553   306A      2.701202  
     307A      2.725007   308A      2.737838   309A      2.779063  
     310A      2.796884   311A      2.808130   312A      2.821328  
     313A      2.839966   314A      2.869355   315A      2.878445  
     316A      2.883916   317A      2.898232   318A      2.915075  
     319A      2.923586   320A      3.020982   321A      3.038439  
     322A      3.092430   323A      3.131597   324A      3.134311  
     325A      3.186536   326A      3.284812   327A      3.289684  
     328A      3.381989   329A      3.485192   330A      3.492449  
     331A      3.591316   332A      3.670175   333A      3.780223  
     334A      3.801287   335A      3.826725   336A      3.895854  
     337A      3.933941   338A      3.939968   339A      3.941899  
     340A      3.994123   341A      4.003541   342A      4.022769  
     343A      4.027587   344A      4.070716   345A      4.092093  
     346A      4.101405   347A      4.103232   348A      4.114217  
     349A      4.126974   350A      4.131839   351A      4.148710  
     352A      4.163629   353A      4.164406   354A      4.172546  
     355A      4.177604   356A      4.184094   357A      4.225174  
     358A      4.234130   359A      4.237414   360A      4.265509  
     361A      4.279763   362A      4.295382   363A      4.295641  
     364A      4.306007   365A      4.318843   366A      4.353366  
     367A      4.357344   368A      4.400540   369A      4.408271  
     370A      4.429513   371A      4.446317   372A      4.460638  
     373A      4.469773   374A      4.473834   375A      4.478303  
     376A      4.485665   377A      4.543874   378A      4.560364  
     379A      4.567101   380A      4.568388   381A      4.571163  
     382A      4.592544   383A      4.596011   384A      4.598174  
     385A      4.612956   386A      4.620325   387A      4.674696  
     388A      4.680148   389A      4.690327   390A      4.726899  
     391A      4.746529   392A      4.760384   393A      4.767751  
     394A      4.781922   395A      4.810040   396A      4.846671  
     397A      4.868268   398A      4.887673   399A      4.907890  
     400A      4.932148   401A      4.945586   402A      4.980222  
     403A      4.983403   404A      5.000727   405A      5.010250  
     406A      5.014778   407A      5.061216   408A      5.067293  
     409A      5.078177   410A      5.102998   411A      5.121248  
     412A      5.122827   413A      5.151922   414A      5.159363  
     415A      5.176586   416A      5.194297   417A      5.200796  
     418A      5.219804   419A      5.228877   420A      5.236656  
     421A      5.241060   422A      5.272420   423A      5.315301  
     424A      5.412447   425A      5.413185   426A      5.446366  
     427A      5.457648   428A      5.471793   429A      5.502944  
     430A      5.512415   431A      5.520987   432A      5.538369  
     433A      5.623060   434A      5.639180   435A      5.658098  
     436A      5.666213   437A      5.689478   438A      5.692871  
     439A      5.730036   440A      5.732038   441A      5.740012  
     442A      5.745051   443A      5.792320   444A      5.793720  
     445A      5.794377   446A      5.815223   447A      5.854578  
     448A      5.897891   449A      5.952393   450A      5.964433  
     451A      5.976885   452A      5.998601   453A      6.007266  
     454A      6.128102   455A      6.128308   456A      6.164915  
     457A      6.189256   458A      6.195142   459A      6.200433  
     460A      6.206544   461A      6.435275   462A      6.447852  
     463A      6.462297   464A      6.503948   465A      6.516390  
     466A      6.701947   467A      6.791131   468A      6.850550  
     469A      6.885573   470A      6.901166   471A      7.069197  
     472A      7.081937   473A      7.107430   474A      7.126550  
     475A      7.157546   476A      7.161458   477A      7.197872  
     478A      7.392268   479A      7.482011   480A      7.517496  
     481A      7.581248   482A      7.658214   483A      7.670826  
     484A      7.785962   485A      7.888563   486A      8.019358  
     487A      8.191504   488A      8.199496   489A      8.204771  
     490A      8.314426   491A      8.323669   492A      8.332288  
     493A      8.964675   494A      8.974125   495A      9.359184  
     496A      9.415654   497A      9.568810   498A     10.042224  
     499A     10.045431   500A     10.980033   501A     11.031228  
     502A     11.344982   503A     11.408611   504A     11.435696  
     505A     49.692968   506A     49.732021   507A     53.928509  
     508A     55.614383   509A     56.383010   510A     56.647403  

    Final Occupation by Irrep:
              A 
    DOCC [     9 ]

  @DF-RHF Final Energy:  -398.71375038161023

   => Energetics <=

    Nuclear Repulsion Energy =             12.9440448015702323
    One-Electron Energy =                -576.6288857580647118
    Two-Electron Energy =                 164.9710905748842151
    Total Energy =                       -398.7137503816102253

Computation Completed


Properties will be evaluated at   0.000000,   0.000000,   0.000000 [a0]

Properties computed using the SCF density matrix

  Nuclear Dipole Moment: [e a0]
     X:     0.0000      Y:     0.0000      Z:   -77.0967

  Electronic Dipole Moment: [e a0]
     X:     0.0000      Y:     0.0000      Z:    77.5240

  Dipole Moment: [e a0]
     X:     0.0000      Y:     0.0000      Z:     0.4273     Total:     0.4273

  Dipole Moment: [D]
     X:     0.0000      Y:     0.0000      Z:     1.0862     Total:     1.0862


*** tstop() called on node51.bme.utexas.edu at Tue Sep 10 10:44:14 2019
Module time:
	user time   =      72.11 seconds =       1.20 minutes
	system time =       1.37 seconds =       0.02 minutes
	total time  =         21 seconds =       0.35 minutes
Total time:
	user time   =     285.79 seconds =       4.76 minutes
	system time =       5.67 seconds =       0.09 minutes
	total time  =         89 seconds =       1.48 minutes
  Constructing Basis Sets for SAPT...

   => Loading Basis Set <=

    Name: (AUG-CC-PVTZ AUX)
    Role: RIFIT
    Keyword: DF_BASIS_SAPT
    atoms 1-6         entry C          line   148 file /home/xy3866/psi4conda/share/psi4/basis/aug-cc-pvtz-ri.gbs 
    atoms 7-12, 14-15 entry H          line    30 file /home/xy3866/psi4conda/share/psi4/basis/aug-cc-pvtz-ri.gbs 
    atoms 13          entry S          line   666 file /home/xy3866/psi4conda/share/psi4/basis/aug-cc-pvtz-ri.gbs 


  //>>>>>>>>>>>>>>>>>>>>>>>>>>>>>>>>>>>//
  //               SAPT2+              //
  //<<<<<<<<<<<<<<<<<<<<<<<<<<<<<<<<<<<//


*** tstart() called on node51.bme.utexas.edu
*** at Tue Sep 10 10:44:14 2019

        SAPT2+  
    Ed Hohenstein
     6 June 2009

      Orbital Information
  --------------------------
    NSO        =       510
    NMO        =       510
    NRI        =      1151
    NOCC A     =        21
    NOCC B     =         9
    FOCC A     =         6
    FOCC B     =         5
    NVIR A     =       489
    NVIR B     =       501

    Estimated memory usage: 4967.8 MB

    Natural Orbital Cutoff:   1.000E-06
    Disp(T3) Truncation:            Yes
    CCD (vv|vv) Truncation:         Yes
    MBPT T2 Truncation:             Yes

    Monomer A: 139 virtual orbitals dropped
    Monomer B: 412 virtual orbitals dropped

    Elst10,r            =    -0.009831329779 [Eh]
    Exch10 (S^2)        =     0.022403704493 [Eh]
    Exch10              =     0.022512188204 [Eh]
    Ind20,r (A<-B)      =    -0.003795107814 [Eh]
    Ind20,r (B<-A)      =    -0.003594843608 [Eh]
    Ind20,r             =    -0.007389951422 [Eh]
    Exch-Ind20,r (A<-B) =     0.002696550778 [Eh]
    Exch-Ind20,r (B<-A) =     0.003377594445 [Eh]
    Exch-Ind20,r        =     0.006074145224 [Eh]
    Disp20              =    -0.016559723159 [Eh]
    Disp20 (NO)         =    -0.015090567104 [Eh]
    Exch-Disp20         =     0.002525771535 [Eh]
    Elst12,r            =     0.000259156196 [Eh]
    Exch11              =     0.001501574074 [Eh]
    Exch12              =    -0.001122641794 [Eh]
    Ind22               =    -0.000277858825 [Eh]
    Disp21              =     0.003547598718 [Eh]
    Disp22 (SDQ)        =     0.000905991766 [Eh]

    (i =   1 of   4)        126 seconds
    (i =   2 of   4)        249 seconds
    (i =   3 of   4)        372 seconds
    (i =   4 of   4)        498 seconds

    Disp220 (T)         =    -0.001672242024 [Eh]

    (i =   1 of  15)          5 seconds
    (i =   2 of  15)         10 seconds
    (i =   3 of  15)         15 seconds
    (i =   4 of  15)         21 seconds
    (i =   5 of  15)         27 seconds
    (i =   6 of  15)         32 seconds
    (i =   7 of  15)         38 seconds
    (i =   8 of  15)         44 seconds
    (i =   9 of  15)         49 seconds
    (i =  10 of  15)         55 seconds
    (i =  11 of  15)         61 seconds
    (i =  12 of  15)         67 seconds
    (i =  13 of  15)         72 seconds
    (i =  14 of  15)         78 seconds
    (i =  15 of  15)         84 seconds

    Disp202 (T)         =    -0.001176391990 [Eh]

    Disp22 (T)          =    -0.002848634014 [Eh]

    Est. Disp220 (T)    =    -0.001835044685 [Eh]
    Est. Disp202 (T)    =    -0.001290920715 [Eh]

    Est. Disp22 (T)     =    -0.003125965401 [Eh]

    SAPT Results 
  --------------------------------------------------------------------------------------------------------
    Electrostatics                 -9.57217358 [mEh]      -6.00662961 [kcal/mol]     -25.13173828 [kJ/mol]
      Elst10,r                     -9.83132978 [mEh]      -6.16925258 [kcal/mol]     -25.81215278 [kJ/mol]
      Elst12,r                      0.25915620 [mEh]       0.16262297 [kcal/mol]       0.68041450 [kJ/mol]

    Exchange                       22.89112048 [mEh]      14.36439497 [kcal/mol]      60.10062855 [kJ/mol]
      Exch10                       22.51218820 [mEh]      14.12661137 [kcal/mol]      59.10574199 [kJ/mol]
      Exch10(S^2)                  22.40370449 [mEh]      14.05853682 [kcal/mol]      58.82091804 [kJ/mol]
      Exch11(S^2)                   1.50157407 [mEh]       0.94225196 [kcal/mol]       3.94238219 [kJ/mol]
      Exch12(S^2)                  -1.12264179 [mEh]      -0.70446836 [kcal/mol]      -2.94749562 [kJ/mol]

    Induction                      -3.83671936 [mEh]      -2.40757775 [kcal/mol]     -10.07330529 [kJ/mol]
      Ind20,r                      -7.38995142 [mEh]      -4.63726453 [kcal/mol]     -19.40231479 [kJ/mol]
      Ind22                        -0.27785883 [mEh]      -0.17435905 [kcal/mol]      -0.72951824 [kJ/mol]
      Exch-Ind20,r                  6.07414522 [mEh]       3.81158367 [kcal/mol]      15.94766609 [kJ/mol]
      Exch-Ind22                    0.22838511 [mEh]       0.14331382 [kcal/mol]       0.59962502 [kJ/mol]
      delta HF,r (2)               -2.47143944 [mEh]      -1.55085166 [kcal/mol]      -6.48876336 [kJ/mol]

    Dispersion                    -12.70632654 [mEh]      -7.97334028 [kcal/mol]     -33.36045574 [kJ/mol]
      Disp20                      -16.55972316 [mEh]     -10.39138317 [kcal/mol]     -43.47754716 [kJ/mol]
      Disp21                        3.54759872 [mEh]       2.22615180 [kcal/mol]       9.31421915 [kJ/mol]
      Disp22 (SDQ)                  0.90599177 [mEh]       0.56851842 [kcal/mol]       2.37868105 [kJ/mol]
      Disp22 (T)                   -2.84863401 [mEh]      -1.78754483 [kcal/mol]      -7.47908757 [kJ/mol]
      Est. Disp22 (T)              -3.12596540 [mEh]      -1.96157290 [kcal/mol]      -8.20722103 [kJ/mol]
      Exch-Disp20                   2.52577154 [mEh]       1.58494557 [kcal/mol]       6.63141225 [kJ/mol]

  Total HF                          8.89361278 [mEh]       5.58082628 [kcal/mol]      23.35017715 [kJ/mol]
  Total SAPT0                      -5.14033884 [mEh]      -3.22561132 [kcal/mol]     -13.49595777 [kJ/mol]
  Total SAPT2                      -4.55172408 [mEh]      -2.85624998 [kcal/mol]     -11.95054993 [kJ/mol]
  Total SAPT2+                     -3.22409900 [mEh]      -2.02315267 [kcal/mol]      -8.46487075 [kJ/mol]

  Special recipe for scaled SAPT0 (see Manual):
    Electrostatics sSAPT0          -9.83132978 [mEh]      -6.16925258 [kcal/mol]     -25.81215278 [kJ/mol]
    Exchange sSAPT0                22.51218820 [mEh]      14.12661137 [kcal/mol]      59.10574199 [kJ/mol]
    Induction sSAPT0               -3.69858061 [mEh]      -2.32089437 [kcal/mol]      -9.71062205 [kJ/mol]
    Dispersion sSAPT0             -13.99708263 [mEh]      -8.78330196 [kcal/mol]     -36.74933539 [kJ/mol]
  Total sSAPT0                     -5.01480482 [mEh]      -3.14683753 [kcal/mol]     -13.16636823 [kJ/mol]
  --------------------------------------------------------------------------------------------------------

*** tstop() called on node51.bme.utexas.edu at Tue Sep 10 11:11:39 2019
Module time:
	user time   =    5503.39 seconds =      91.72 minutes
	system time =     142.84 seconds =       2.38 minutes
	total time  =       1645 seconds =      27.42 minutes
Total time:
	user time   =    5789.37 seconds =      96.49 minutes
	system time =     148.52 seconds =       2.48 minutes
	total time  =       1734 seconds =      28.90 minutes

    Psi4 stopped on: Tuesday, 10 September 2019 11:11AM
    Psi4 wall time for execution: 0:28:54.12

*** Psi4 exiting successfully. Buy a developer a beer!
