
    -----------------------------------------------------------------------
          Psi4: An Open-Source Ab Initio Electronic Structure Package
                               Psi4 1.3.2 release

                         Git: Rev {HEAD} ecbda83 


    R. M. Parrish, L. A. Burns, D. G. A. Smith, A. C. Simmonett,
    A. E. DePrince III, E. G. Hohenstein, U. Bozkaya, A. Yu. Sokolov,
    R. Di Remigio, R. M. Richard, J. F. Gonthier, A. M. James,
    H. R. McAlexander, A. Kumar, M. Saitow, X. Wang, B. P. Pritchard,
    P. Verma, H. F. Schaefer III, K. Patkowski, R. A. King, E. F. Valeev,
    F. A. Evangelista, J. M. Turney, T. D. Crawford, and C. D. Sherrill,
    J. Chem. Theory Comput. 13(7) pp 3185--3197 (2017).
    (doi: 10.1021/acs.jctc.7b00174)


                         Additional Contributions by
    P. Kraus, H. Kruse, M. H. Lechner, M. C. Schieber, R. A. Shaw,
    A. Alenaizan, R. Galvelis, Z. L. Glick, S. Lehtola, and J. P. Misiewicz

    -----------------------------------------------------------------------


    Psi4 started on: Tuesday, 10 September 2019 01:36PM

    Process ID: 103022
    Host:       node54.bme.utexas.edu
    PSIDATADIR: /home/xy3866/psi4conda/share/psi4
    Memory:     500.0 MiB
    Threads:    4
    
  ==> Input File <==

--------------------------------------------------------------------------
#psi4
#
memory 32 gb

molecule  {
0 1
  C        0.0000000    -1.3936580     1.0640200
  C        1.2077370    -0.6968160     1.0627950
  C        1.2077370     0.6968160     1.0627950
  C        0.0000000     1.3936580     1.0640200
  C       -1.2077370     0.6968160     1.0627950
  C       -1.2077370    -0.6968160     1.0627950
  H        0.0000000    -2.4753200     1.0692940
  H        2.1443140    -1.2373140     1.0618960
  H        2.1443140     1.2373140     1.0618960
  H        0.0000000     2.4753200     1.0692940
  H       -2.1443140     1.2373140     1.0618960
  H       -2.1443140    -1.2373140     1.0618960
--
0 1
  S        0.0000000     0.0000000    -1.5646046
  H        0.0000000     0.9544370    -0.6285366
  H        0.0000000    -0.9544370    -0.6285366
units angstrom
no_reorient  #important for SAPT in psi4, default
symmetry c1  #important for SAPT in psi4, default
}

set {
basis aug-cc-pVTZ
scf_type DF
freeze_core True
}
energy('sapt2+')
--------------------------------------------------------------------------

  Memory set to  29.802 GiB by Python driver.

  //>>>>>>>>>>>>>>>>>>>>>>>>>>>>>>>>>>>//
  //              Dimer HF             //
  //<<<<<<<<<<<<<<<<<<<<<<<<<<<<<<<<<<<//


*** tstart() called on node54.bme.utexas.edu
*** at Tue Sep 10 13:36:40 2019

   => Loading Basis Set <=

    Name: AUG-CC-PVTZ
    Role: ORBITAL
    Keyword: BASIS
    atoms 1-6         entry C          line   235 file /home/xy3866/psi4conda/share/psi4/basis/aug-cc-pvtz.gbs 
    atoms 7-12, 14-15 entry H          line    36 file /home/xy3866/psi4conda/share/psi4/basis/aug-cc-pvtz.gbs 
    atoms 13          entry S          line   902 file /home/xy3866/psi4conda/share/psi4/basis/aug-cc-pvtz.gbs 


         ---------------------------------------------------------
                                   SCF
               by Justin Turney, Rob Parrish, Andy Simmonett
                          and Daniel G. A. Smith
                              RHF Reference
                        4 Threads,  30517 MiB Core
         ---------------------------------------------------------

  ==> Geometry <==

    Molecular point group: c1
    Full point group: C2v

    Geometry (in Angstrom), charge = 0, multiplicity = 1:

       Center              X                  Y                   Z               Mass       
    ------------   -----------------  -----------------  -----------------  -----------------
         C            0.000000000000    -1.393658000000     0.781105576034    12.000000000000
         C            1.207737000000    -0.696816000000     0.779880576034    12.000000000000
         C            1.207737000000     0.696816000000     0.779880576034    12.000000000000
         C            0.000000000000     1.393658000000     0.781105576034    12.000000000000
         C           -1.207737000000     0.696816000000     0.779880576034    12.000000000000
         C           -1.207737000000    -0.696816000000     0.779880576034    12.000000000000
         H            0.000000000000    -2.475320000000     0.786379576034     1.007825032230
         H            2.144314000000    -1.237314000000     0.778981576034     1.007825032230
         H            2.144314000000     1.237314000000     0.778981576034     1.007825032230
         H            0.000000000000     2.475320000000     0.786379576034     1.007825032230
         H           -2.144314000000     1.237314000000     0.778981576034     1.007825032230
         H           -2.144314000000    -1.237314000000     0.778981576034     1.007825032230
         S            0.000000000000     0.000000000000    -1.847519023966    31.972071174400
         H            0.000000000000     0.954437000000    -0.911451023966     1.007825032230
         H            0.000000000000    -0.954437000000    -0.911451023966     1.007825032230

  Running in c1 symmetry.

  Rotational constants: A =      0.09427  B =      0.06828  C =      0.06781 [cm^-1]
  Rotational constants: A =   2826.03195  B =   2047.01348  C =   2032.77709 [MHz]
  Nuclear repulsion =  351.922684703270420

  Charge       = 0
  Multiplicity = 1
  Electrons    = 60
  Nalpha       = 30
  Nbeta        = 30

  ==> Algorithm <==

  SCF Algorithm Type is DF.
  DIIS enabled.
  MOM disabled.
  Fractional occupation disabled.
  Guess Type is SAD.
  Energy threshold   = 1.00e-08
  Density threshold  = 1.00e-08
  Integral threshold = 0.00e+00

  ==> Primary Basis <==

  Basis Set: AUG-CC-PVTZ
    Blend: AUG-CC-PVTZ
    Number of shells: 172
    Number of basis function: 510
    Number of Cartesian functions: 589
    Spherical Harmonics?: true
    Max angular momentum: 3

   => Loading Basis Set <=

    Name: (AUG-CC-PVTZ AUX)
    Role: JKFIT
    Keyword: DF_BASIS_SCF
    atoms 1-6         entry C          line   162 file /home/xy3866/psi4conda/share/psi4/basis/aug-cc-pvtz-jkfit.gbs 
    atoms 7-12, 14-15 entry H          line    70 file /home/xy3866/psi4conda/share/psi4/basis/aug-cc-pvtz-jkfit.gbs 
    atoms 13          entry S          line   730 file /home/xy3866/psi4conda/share/psi4/basis/aug-cc-pvtz-jkfit.gbs 

  ==> Pre-Iterations <==

   -------------------------------------------------------
    Irrep   Nso     Nmo     Nalpha   Nbeta   Ndocc  Nsocc
   -------------------------------------------------------
     A        510     510       0       0       0       0
   -------------------------------------------------------
    Total     510     510      30      30      30       0
   -------------------------------------------------------

  ==> Integral Setup <==

  ==> DiskDFJK: Density-Fitted J/K Matrices <==

    J tasked:                  Yes
    K tasked:                  Yes
    wK tasked:                  No
    OpenMP threads:              4
    Integrals threads:           4
    Memory [MiB]:            22888
    Algorithm:                Core
    Integral Cache:           SAVE
    Schwarz Cutoff:          1E-12
    Fitting Condition:       1E-10

   => Auxiliary Basis Set <=

  Basis Set: (AUG-CC-PVTZ AUX)
    Blend: AUG-CC-PVTZ-JKFIT
    Number of shells: 334
    Number of basis function: 1138
    Number of Cartesian functions: 1406
    Spherical Harmonics?: true
    Max angular momentum: 4

  Minimum eigenvalue in the overlap matrix is 2.6740868503E-07.
  Using Symmetric Orthogonalization.

  SCF Guess: Superposition of Atomic Densities via on-the-fly atomic UHF.

  ==> Iterations <==

                           Total Energy        Delta E     RMS |[F,P]|

   @DF-RHF iter SAD:  -629.52791031993854   -6.29528e+02   0.00000e+00 
   @DF-RHF iter   1:  -629.19691174182583    3.30999e-01   1.12777e-03 DIIS
   @DF-RHF iter   2:  -629.35869848780862   -1.61787e-01   5.37169e-04 DIIS
   @DF-RHF iter   3:  -629.39555932257770   -3.68608e-02   1.16125e-04 DIIS
   @DF-RHF iter   4:  -629.39825511267554   -2.69579e-03   2.96836e-05 DIIS
   @DF-RHF iter   5:  -629.39847089137311   -2.15779e-04   7.37537e-06 DIIS
   @DF-RHF iter   6:  -629.39849222203088   -2.13307e-05   2.13840e-06 DIIS
   @DF-RHF iter   7:  -629.39849422345969   -2.00143e-06   6.38618e-07 DIIS
   @DF-RHF iter   8:  -629.39849438329804   -1.59838e-07   2.11369e-07 DIIS
   @DF-RHF iter   9:  -629.39849439494708   -1.16490e-08   4.42551e-08 DIIS
   @DF-RHF iter  10:  -629.39849439576881   -8.21728e-10   1.74560e-08 DIIS
   @DF-RHF iter  11:  -629.39849439586260   -9.37916e-11   5.41554e-09 DIIS
  Energy and wave function converged.


  ==> Post-Iterations <==

    Orbital Energies [Eh]
    ---------------------

    Doubly Occupied:                                                      

       1A    -91.895144     2A    -11.254431     3A    -11.254258  
       4A    -11.252958     5A    -11.252436     6A    -11.251704  
       7A    -11.251414     8A     -8.901422     9A     -6.582610  
      10A     -6.582458    11A     -6.580997    12A     -1.182912  
      13A     -1.045130    14A     -1.036108    15A     -0.946488  
      16A     -0.845664    17A     -0.844785    18A     -0.730708  
      19A     -0.663091    20A     -0.639561    21A     -0.616766  
      22A     -0.607286    23A     -0.574465    24A     -0.562980  
      25A     -0.514562    26A     -0.513900    27A     -0.401503  
      28A     -0.392675    29A     -0.336594    30A     -0.306403  

    Virtual:                                                              

      31A      0.025876    32A      0.031174    33A      0.033179  
      34A      0.045591    35A      0.045820    36A      0.058587  
      37A      0.062003    38A      0.062600    39A      0.073432  
      40A      0.085249    41A      0.090355    42A      0.102087  
      43A      0.109614    44A      0.114883    45A      0.118225  
      46A      0.122453    47A      0.122705    48A      0.122981  
      49A      0.124853    50A      0.127945    51A      0.136159  
      52A      0.143214    53A      0.145776    54A      0.149926  
      55A      0.153784    56A      0.154548    57A      0.156778  
      58A      0.158705    59A      0.173320    60A      0.174700  
      61A      0.183748    62A      0.215623    63A      0.228318  
      64A      0.240687    65A      0.242395    66A      0.243588  
      67A      0.248758    68A      0.264613    69A      0.266390  
      70A      0.276264    71A      0.278820    72A      0.287739  
      73A      0.293929    74A      0.294570    75A      0.302020  
      76A      0.310682    77A      0.313242    78A      0.326109  
      79A      0.326967    80A      0.329153    81A      0.340023  
      82A      0.340355    83A      0.345637    84A      0.353826  
      85A      0.357076    86A      0.363918    87A      0.365399  
      88A      0.368033    89A      0.378205    90A      0.382346  
      91A      0.387723    92A      0.390263    93A      0.400815  
      94A      0.409702    95A      0.422405    96A      0.434587  
      97A      0.441756    98A      0.452655    99A      0.455185  
     100A      0.460100   101A      0.463840   102A      0.470698  
     103A      0.472075   104A      0.477279   105A      0.484556  
     106A      0.491172   107A      0.494190   108A      0.497367  
     109A      0.501355   110A      0.513270   111A      0.516704  
     112A      0.520956   113A      0.524273   114A      0.525373  
     115A      0.526618   116A      0.529285   117A      0.534831  
     118A      0.539752   119A      0.555621   120A      0.574248  
     121A      0.574397   122A      0.577842   123A      0.586092  
     124A      0.602879   125A      0.622084   126A      0.627305  
     127A      0.631165   128A      0.641930   129A      0.644295  
     130A      0.646322   131A      0.652263   132A      0.659907  
     133A      0.669009   134A      0.693340   135A      0.695648  
     136A      0.695890   137A      0.701388   138A      0.712721  
     139A      0.717528   140A      0.728678   141A      0.728907  
     142A      0.729779   143A      0.744803   144A      0.756497  
     145A      0.777142   146A      0.781036   147A      0.788774  
     148A      0.800793   149A      0.807659   150A      0.808522  
     151A      0.823531   152A      0.830836   153A      0.834654  
     154A      0.841030   155A      0.846375   156A      0.855151  
     157A      0.855897   158A      0.860683   159A      0.868057  
     160A      0.870195   161A      0.881392   162A      0.882241  
     163A      0.886905   164A      0.903252   165A      0.906494  
     166A      0.914925   167A      0.922154   168A      0.935089  
     169A      0.957416   170A      0.961122   171A      0.973117  
     172A      0.982395   173A      0.990623   174A      1.002854  
     175A      1.011061   176A      1.020426   177A      1.027188  
     178A      1.059975   179A      1.061324   180A      1.065222  
     181A      1.066632   182A      1.083394   183A      1.086015  
     184A      1.089118   185A      1.093519   186A      1.120870  
     187A      1.122574   188A      1.124519   189A      1.133259  
     190A      1.133593   191A      1.133778   192A      1.140939  
     193A      1.149685   194A      1.150811   195A      1.165272  
     196A      1.168217   197A      1.176589   198A      1.185436  
     199A      1.187161   200A      1.190770   201A      1.203134  
     202A      1.217517   203A      1.230305   204A      1.234472  
     205A      1.235725   206A      1.239621   207A      1.242672  
     208A      1.249009   209A      1.255549   210A      1.257736  
     211A      1.262126   212A      1.291885   213A      1.309837  
     214A      1.328831   215A      1.341591   216A      1.342081  
     217A      1.342269   218A      1.348707   219A      1.356095  
     220A      1.376317   221A      1.384302   222A      1.398575  
     223A      1.402164   224A      1.402502   225A      1.429803  
     226A      1.435782   227A      1.441847   228A      1.446560  
     229A      1.451449   230A      1.460115   231A      1.475335  
     232A      1.482311   233A      1.486746   234A      1.490116  
     235A      1.503720   236A      1.511490   237A      1.535964  
     238A      1.541930   239A      1.554743   240A      1.597669  
     241A      1.609125   242A      1.634798   243A      1.651021  
     244A      1.653044   245A      1.662208   246A      1.682949  
     247A      1.687865   248A      1.700376   249A      1.705876  
     250A      1.711128   251A      1.728110   252A      1.733713  
     253A      1.735040   254A      1.737172   255A      1.752814  
     256A      1.771165   257A      1.792833   258A      1.806496  
     259A      1.810429   260A      1.814841   261A      1.823081  
     262A      1.827254   263A      1.839525   264A      1.848032  
     265A      1.863407   266A      1.867244   267A      1.894887  
     268A      1.895647   269A      1.912547   270A      1.926240  
     271A      1.929194   272A      1.959765   273A      1.977206  
     274A      1.980986   275A      2.002333   276A      2.005418  
     277A      2.014058   278A      2.019840   279A      2.032387  
     280A      2.038759   281A      2.052602   282A      2.054423  
     283A      2.055420   284A      2.070755   285A      2.088175  
     286A      2.114943   287A      2.116427   288A      2.117480  
     289A      2.119889   290A      2.126652   291A      2.140549  
     292A      2.152443   293A      2.206360   294A      2.222402  
     295A      2.228434   296A      2.287232   297A      2.306082  
     298A      2.320915   299A      2.327401   300A      2.329003  
     301A      2.331115   302A      2.349170   303A      2.356402  
     304A      2.368106   305A      2.376708   306A      2.395607  
     307A      2.448059   308A      2.476068   309A      2.490765  
     310A      2.490999   311A      2.500502   312A      2.503044  
     313A      2.536958   314A      2.538465   315A      2.555981  
     316A      2.558175   317A      2.568484   318A      2.570209  
     319A      2.577118   320A      2.591072   321A      2.647925  
     322A      2.673234   323A      2.673841   324A      2.711637  
     325A      2.732258   326A      2.738319   327A      2.749528  
     328A      2.776433   329A      2.827524   330A      2.830057  
     331A      2.854804   332A      2.905352   333A      2.933818  
     334A      2.939166   335A      3.000989   336A      3.029516  
     337A      3.069632   338A      3.154713   339A      3.180218  
     340A      3.236800   341A      3.246973   342A      3.303709  
     343A      3.305656   344A      3.324875   345A      3.346666  
     346A      3.354576   347A      3.385513   348A      3.410858  
     349A      3.411056   350A      3.424871   351A      3.433329  
     352A      3.448611   353A      3.467051   354A      3.482687  
     355A      3.489834   356A      3.492675   357A      3.496064  
     358A      3.553592   359A      3.585240   360A      3.602711  
     361A      3.605569   362A      3.616374   363A      3.629359  
     364A      3.649299   365A      3.674681   366A      3.674792  
     367A      3.690482   368A      3.704974   369A      3.709541  
     370A      3.728738   371A      3.737640   372A      3.778237  
     373A      3.780121   374A      3.784994   375A      3.823098  
     376A      3.823614   377A      3.837483   378A      3.846909  
     379A      3.848870   380A      3.869186   381A      3.877774  
     382A      3.892258   383A      3.943918   384A      3.956141  
     385A      3.972153   386A      3.975922   387A      3.986379  
     388A      3.994558   389A      4.000404   390A      4.036918  
     391A      4.041635   392A      4.048559   393A      4.055529  
     394A      4.060842   395A      4.095512   396A      4.101405  
     397A      4.115520   398A      4.130022   399A      4.134384  
     400A      4.151479   401A      4.159501   402A      4.171521  
     403A      4.189162   404A      4.190259   405A      4.201171  
     406A      4.215939   407A      4.236441   408A      4.272380  
     409A      4.317093   410A      4.317875   411A      4.331129  
     412A      4.337502   413A      4.361574   414A      4.372587  
     415A      4.381455   416A      4.395553   417A      4.412862  
     418A      4.423883   419A      4.426927   420A      4.427382  
     421A      4.434719   422A      4.456770   423A      4.469992  
     424A      4.475974   425A      4.519842   426A      4.523276  
     427A      4.559686   428A      4.567363   429A      4.613782  
     430A      4.634385   431A      4.657681   432A      4.687687  
     433A      4.700610   434A      4.719470   435A      4.792783  
     436A      4.807433   437A      4.808575   438A      4.812772  
     439A      4.819730   440A      4.844562   441A      4.861520  
     442A      4.874086   443A      4.899221   444A      4.910199  
     445A      4.924303   446A      4.957756   447A      4.988410  
     448A      5.005476   449A      5.008497   450A      5.038226  
     451A      5.098092   452A      5.108022   453A      5.132553  
     454A      5.139094   455A      5.168029   456A      5.168861  
     457A      5.169873   458A      5.213268   459A      5.219114  
     460A      5.224888   461A      5.238177   462A      5.243561  
     463A      5.255950   464A      5.259535   465A      5.281358  
     466A      5.328954   467A      5.346341   468A      5.360437  
     469A      5.372289   470A      5.375339   471A      5.381015  
     472A      5.428117   473A      5.451173   474A      5.465988  
     475A      5.527889   476A      5.534756   477A      5.568874  
     478A      5.574074   479A      5.633551   480A      5.729161  
     481A      5.762400   482A      5.808613   483A      5.814522  
     484A      5.820166   485A      5.857322   486A      5.857399  
     487A      5.986754   488A      6.053310   489A      6.219077  
     490A      6.261640   491A      6.277511   492A      6.338845  
     493A      6.367238   494A      6.376690   495A      6.413025  
     496A      6.461694   497A      6.649114   498A      6.735953  
     499A      6.877972   500A      6.884288   501A      7.013216  
     502A      7.228419   503A      7.432957   504A      9.148074  
     505A     16.373451   506A     16.432445   507A     19.633196  
     508A     19.760293   509A     19.908898   510A     20.349585  

    Final Occupation by Irrep:
              A 
    DOCC [    30 ]

  @DF-RHF Final Energy:  -629.39849439586260

   => Energetics <=

    Nuclear Repulsion Energy =            351.9226847032704200
    One-Electron Energy =               -1560.9995217372143088
    Two-Electron Energy =                 579.6783426380811761
    Total Energy =                       -629.3984943958625990

Computation Completed


Properties will be evaluated at   0.000000,   0.000000,   0.000000 [a0]

Properties computed using the SCF density matrix

  Nuclear Dipole Moment: [e a0]
     X:     0.0000      Y:    -0.0000      Z:     2.6378

  Electronic Dipole Moment: [e a0]
     X:     0.0000      Y:    -0.0000      Z:    -1.5803

  Dipole Moment: [e a0]
     X:     0.0000      Y:    -0.0000      Z:     1.0575     Total:     1.0575

  Dipole Moment: [D]
     X:     0.0000      Y:    -0.0000      Z:     2.6879     Total:     2.6879


*** tstop() called on node54.bme.utexas.edu at Tue Sep 10 13:37:16 2019
Module time:
	user time   =     132.76 seconds =       2.21 minutes
	system time =       2.30 seconds =       0.04 minutes
	total time  =         36 seconds =       0.60 minutes
Total time:
	user time   =     132.76 seconds =       2.21 minutes
	system time =       2.30 seconds =       0.04 minutes
	total time  =         36 seconds =       0.60 minutes

  //>>>>>>>>>>>>>>>>>>>>>>>>>>>>>>>>>>>//
  //            Monomer A HF           //
  //<<<<<<<<<<<<<<<<<<<<<<<<<<<<<<<<<<<//


*** tstart() called on node54.bme.utexas.edu
*** at Tue Sep 10 13:37:16 2019

   => Loading Basis Set <=

    Name: AUG-CC-PVTZ
    Role: ORBITAL
    Keyword: BASIS
    atoms 1-6         entry C          line   235 file /home/xy3866/psi4conda/share/psi4/basis/aug-cc-pvtz.gbs 
    atoms 7-12, 14-15 entry H          line    36 file /home/xy3866/psi4conda/share/psi4/basis/aug-cc-pvtz.gbs 
    atoms 13          entry S          line   902 file /home/xy3866/psi4conda/share/psi4/basis/aug-cc-pvtz.gbs 


         ---------------------------------------------------------
                                   SCF
               by Justin Turney, Rob Parrish, Andy Simmonett
                          and Daniel G. A. Smith
                              RHF Reference
                        4 Threads,  30517 MiB Core
         ---------------------------------------------------------

  ==> Geometry <==

    Molecular point group: c1
    Full point group: C2v

    Geometry (in Angstrom), charge = 0, multiplicity = 1:

       Center              X                  Y                   Z               Mass       
    ------------   -----------------  -----------------  -----------------  -----------------
         C            0.000000000000    -1.393658000000     0.781105576034    12.000000000000
         C            1.207737000000    -0.696816000000     0.779880576034    12.000000000000
         C            1.207737000000     0.696816000000     0.779880576034    12.000000000000
         C            0.000000000000     1.393658000000     0.781105576034    12.000000000000
         C           -1.207737000000     0.696816000000     0.779880576034    12.000000000000
         C           -1.207737000000    -0.696816000000     0.779880576034    12.000000000000
         H            0.000000000000    -2.475320000000     0.786379576034     1.007825032230
         H            2.144314000000    -1.237314000000     0.778981576034     1.007825032230
         H            2.144314000000     1.237314000000     0.778981576034     1.007825032230
         H            0.000000000000     2.475320000000     0.786379576034     1.007825032230
         H           -2.144314000000     1.237314000000     0.778981576034     1.007825032230
         H           -2.144314000000    -1.237314000000     0.778981576034     1.007825032230
      Gh(S)           0.000000000000     0.000000000000    -1.847519023966    31.972071174400
      Gh(H)           0.000000000000     0.954437000000    -0.911451023966     1.007825032230
      Gh(H)           0.000000000000    -0.954437000000    -0.911451023966     1.007825032230

  Running in c1 symmetry.

  Rotational constants: A =      0.09427  B =      0.06828  C =      0.06781 [cm^-1]
  Rotational constants: A =   2826.03195  B =   2047.01348  C =   2032.77709 [MHz]
  Nuclear repulsion =  203.653891607934128

  Charge       = 0
  Multiplicity = 1
  Electrons    = 42
  Nalpha       = 21
  Nbeta        = 21

  ==> Algorithm <==

  SCF Algorithm Type is DF.
  DIIS enabled.
  MOM disabled.
  Fractional occupation disabled.
  Guess Type is SAD.
  Energy threshold   = 1.00e-08
  Density threshold  = 1.00e-08
  Integral threshold = 0.00e+00

  ==> Primary Basis <==

  Basis Set: AUG-CC-PVTZ
    Blend: AUG-CC-PVTZ
    Number of shells: 172
    Number of basis function: 510
    Number of Cartesian functions: 589
    Spherical Harmonics?: true
    Max angular momentum: 3

   => Loading Basis Set <=

    Name: (AUG-CC-PVTZ AUX)
    Role: JKFIT
    Keyword: DF_BASIS_SCF
    atoms 1-6         entry C          line   162 file /home/xy3866/psi4conda/share/psi4/basis/aug-cc-pvtz-jkfit.gbs 
    atoms 7-12, 14-15 entry H          line    70 file /home/xy3866/psi4conda/share/psi4/basis/aug-cc-pvtz-jkfit.gbs 
    atoms 13          entry S          line   730 file /home/xy3866/psi4conda/share/psi4/basis/aug-cc-pvtz-jkfit.gbs 

  ==> Pre-Iterations <==

   -------------------------------------------------------
    Irrep   Nso     Nmo     Nalpha   Nbeta   Ndocc  Nsocc
   -------------------------------------------------------
     A        510     510       0       0       0       0
   -------------------------------------------------------
    Total     510     510      21      21      21       0
   -------------------------------------------------------

  ==> Integral Setup <==

  ==> DiskDFJK: Density-Fitted J/K Matrices <==

    J tasked:                  Yes
    K tasked:                  Yes
    wK tasked:                  No
    OpenMP threads:              4
    Integrals threads:           4
    Memory [MiB]:            22888
    Algorithm:                Core
    Integral Cache:           LOAD
    Schwarz Cutoff:          1E-12
    Fitting Condition:       1E-10

   => Auxiliary Basis Set <=

  Basis Set: (AUG-CC-PVTZ AUX)
    Blend: AUG-CC-PVTZ-JKFIT
    Number of shells: 334
    Number of basis function: 1138
    Number of Cartesian functions: 1406
    Spherical Harmonics?: true
    Max angular momentum: 4

  Minimum eigenvalue in the overlap matrix is 2.6740868503E-07.
  Using Symmetric Orthogonalization.

  SCF Guess: Superposition of Atomic Densities via on-the-fly atomic UHF.

  ==> Iterations <==

                           Total Energy        Delta E     RMS |[F,P]|

   @DF-RHF iter SAD:  -230.19001804276326   -2.30190e+02   0.00000e+00 
   @DF-RHF iter   1:  -230.60102690559557   -4.11009e-01   1.07252e-03 DIIS
   @DF-RHF iter   2:  -230.74304168901298   -1.42015e-01   5.32085e-04 DIIS
   @DF-RHF iter   3:  -230.77997840623846   -3.69367e-02   8.50169e-05 DIIS
   @DF-RHF iter   4:  -230.78152729576919   -1.54889e-03   1.05171e-05 DIIS
   @DF-RHF iter   5:  -230.78155629716349   -2.90014e-05   1.91785e-06 DIIS
   @DF-RHF iter   6:  -230.78155732336086   -1.02620e-06   2.19176e-07 DIIS
   @DF-RHF iter   7:  -230.78155733914514   -1.57843e-08   3.60734e-08 DIIS
   @DF-RHF iter   8:  -230.78155733947560   -3.30459e-10   1.53810e-08 DIIS
   @DF-RHF iter   9:  -230.78155733952389   -4.82885e-11   2.98340e-09 DIIS
  Energy and wave function converged.


  ==> Post-Iterations <==

    Orbital Energies [Eh]
    ---------------------

    Doubly Occupied:                                                      

       1A    -11.236357     2A    -11.235805     3A    -11.235756  
       4A    -11.234564     5A    -11.234509     6A    -11.233930  
       7A     -1.150202     8A     -1.014902     9A     -1.014525  
      10A     -0.824191    11A     -0.824014    12A     -0.709597  
      13A     -0.644234    14A     -0.619013    15A     -0.588263  
      16A     -0.587858    17A     -0.502290    18A     -0.494939  
      19A     -0.494850    20A     -0.336883    21A     -0.336615  

    Virtual:                                                              

      22A      0.028066    23A      0.034276    24A      0.034567  
      25A      0.046760    26A      0.048024    27A      0.048065  
      28A      0.061441    29A      0.064559    30A      0.092866  
      31A      0.098704    32A      0.102016    33A      0.102276  
      34A      0.111388    35A      0.112659    36A      0.114329  
      37A      0.120581    38A      0.126639    39A      0.127926  
      40A      0.128052    41A      0.128736    42A      0.132479  
      43A      0.141552    44A      0.154091    45A      0.155416  
      46A      0.156484    47A      0.158103    48A      0.158183  
      49A      0.159378    50A      0.161211    51A      0.172632  
      52A      0.174907    53A      0.208927    54A      0.231196  
      55A      0.243077    56A      0.245501    57A      0.254477  
      58A      0.254520    59A      0.258475    60A      0.289853  
      61A      0.290253    62A      0.295096    63A      0.297764  
      64A      0.300628    65A      0.306613    66A      0.311862  
      67A      0.315108    68A      0.320318    69A      0.325891  
      70A      0.331644    71A      0.334938    72A      0.346008  
      73A      0.346245    74A      0.348256    75A      0.349113  
      76A      0.364486    77A      0.371604    78A      0.371705  
      79A      0.372111    80A      0.373142    81A      0.396063  
      82A      0.398325    83A      0.407479    84A      0.411351  
      85A      0.412545    86A      0.424097    87A      0.434843  
      88A      0.454142    89A      0.459501    90A      0.468492  
      91A      0.474574    92A      0.476328    93A      0.476451  
      94A      0.490308    95A      0.491999    96A      0.495227  
      97A      0.496090    98A      0.499377    99A      0.501488  
     100A      0.506721   101A      0.520084   102A      0.520913  
     103A      0.529991   104A      0.531428   105A      0.533191  
     106A      0.533386   107A      0.535168   108A      0.542287  
     109A      0.549528   110A      0.560609   111A      0.575234  
     112A      0.584863   113A      0.595381   114A      0.608571  
     115A      0.611314   116A      0.626808   117A      0.633501  
     118A      0.640830   119A      0.647889   120A      0.659464  
     121A      0.660318   122A      0.661661   123A      0.665105  
     124A      0.693368   125A      0.693408   126A      0.701676  
     127A      0.703163   128A      0.709242   129A      0.723995  
     130A      0.728570   131A      0.742722   132A      0.750204  
     133A      0.755007   134A      0.759791   135A      0.779010  
     136A      0.784892   137A      0.796878   138A      0.806217  
     139A      0.817218   140A      0.835513   141A      0.836771  
     142A      0.840643   143A      0.848104   144A      0.855430  
     145A      0.859859   146A      0.866512   147A      0.868826  
     148A      0.871891   149A      0.875423   150A      0.878409  
     151A      0.889640   152A      0.890613   153A      0.901610  
     154A      0.904037   155A      0.910285   156A      0.934836  
     157A      0.946773   158A      0.955723   159A      0.964346  
     160A      0.989112   161A      0.995952   162A      1.020094  
     163A      1.021618   164A      1.042536   165A      1.067331  
     166A      1.068474   167A      1.071114   168A      1.071714  
     169A      1.072827   170A      1.084639   171A      1.088856  
     172A      1.099189   173A      1.099896   174A      1.117756  
     175A      1.118658   176A      1.125767   177A      1.133348  
     178A      1.133408   179A      1.142190   180A      1.147383  
     181A      1.147792   182A      1.163559   183A      1.168657  
     184A      1.172299   185A      1.173122   186A      1.180512  
     187A      1.197727   188A      1.212994   189A      1.219356  
     190A      1.219852   191A      1.220920   192A      1.230188  
     193A      1.234791   194A      1.239855   195A      1.250382  
     196A      1.252185   197A      1.257122   198A      1.261735  
     199A      1.262472   200A      1.269027   201A      1.269648  
     202A      1.295021   203A      1.323349   204A      1.326121  
     205A      1.344234   206A      1.354817   207A      1.360847  
     208A      1.362402   209A      1.375753   210A      1.380474  
     211A      1.384491   212A      1.387790   213A      1.403791  
     214A      1.411703   215A      1.417670   216A      1.435952  
     217A      1.461758   218A      1.470906   219A      1.486583  
     220A      1.502704   221A      1.504163   222A      1.508075  
     223A      1.515037   224A      1.520319   225A      1.528325  
     226A      1.545739   227A      1.548271   228A      1.549072  
     229A      1.570109   230A      1.622480   231A      1.625959  
     232A      1.638603   233A      1.641333   234A      1.677634  
     235A      1.687848   236A      1.698615   237A      1.700421  
     238A      1.702060   239A      1.703073   240A      1.724402  
     241A      1.746872   242A      1.747667   243A      1.754558  
     244A      1.761497   245A      1.774368   246A      1.786099  
     247A      1.791669   248A      1.800194   249A      1.820417  
     250A      1.824843   251A      1.841687   252A      1.850574  
     253A      1.854120   254A      1.866669   255A      1.873931  
     256A      1.880340   257A      1.894448   258A      1.894774  
     259A      1.926933   260A      1.926948   261A      1.937877  
     262A      1.938736   263A      1.977912   264A      2.017001  
     265A      2.017966   266A      2.027388   267A      2.031194  
     268A      2.033460   269A      2.046174   270A      2.057951  
     271A      2.064582   272A      2.072269   273A      2.092324  
     274A      2.099066   275A      2.105371   276A      2.106688  
     277A      2.107466   278A      2.140476   279A      2.147360  
     280A      2.148343   281A      2.160181   282A      2.211374  
     283A      2.230727   284A      2.234483   285A      2.245915  
     286A      2.260396   287A      2.296331   288A      2.317432  
     289A      2.318681   290A      2.351317   291A      2.354523  
     292A      2.366608   293A      2.368151   294A      2.379996  
     295A      2.437957   296A      2.451260   297A      2.464629  
     298A      2.475992   299A      2.479195   300A      2.482726  
     301A      2.530771   302A      2.534179   303A      2.547415  
     304A      2.554975   305A      2.557175   306A      2.574811  
     307A      2.606179   308A      2.616340   309A      2.629714  
     310A      2.691445   311A      2.697262   312A      2.744799  
     313A      2.756706   314A      2.765688   315A      2.794826  
     316A      2.849121   317A      2.849587   318A      3.032420  
     319A      3.075346   320A      3.101068   321A      3.134404  
     322A      3.165024   323A      3.175573   324A      3.201435  
     325A      3.230282   326A      3.245501   327A      3.318752  
     328A      3.320126   329A      3.347134   330A      3.347328  
     331A      3.360164   332A      3.393982   333A      3.412134  
     334A      3.428142   335A      3.442016   336A      3.445392  
     337A      3.456871   338A      3.466473   339A      3.481363  
     340A      3.483369   341A      3.483948   342A      3.500876  
     343A      3.515652   344A      3.548537   345A      3.595471  
     346A      3.602334   347A      3.632728   348A      3.640195  
     349A      3.656856   350A      3.658084   351A      3.667599  
     352A      3.667625   353A      3.667669   354A      3.694443  
     355A      3.719396   356A      3.729914   357A      3.744948  
     358A      3.759256   359A      3.762358   360A      3.769768  
     361A      3.806507   362A      3.820653   363A      3.824664  
     364A      3.831515   365A      3.838881   366A      3.852818  
     367A      3.876189   368A      3.885486   369A      3.913537  
     370A      3.927267   371A      3.936099   372A      3.957901  
     373A      3.961518   374A      3.981596   375A      3.992027  
     376A      3.999367   377A      4.003494   378A      4.016245  
     379A      4.035465   380A      4.040256   381A      4.052361  
     382A      4.062020   383A      4.065806   384A      4.075150  
     385A      4.092511   386A      4.109799   387A      4.136394  
     388A      4.136770   389A      4.167794   390A      4.169549  
     391A      4.187828   392A      4.189386   393A      4.211796  
     394A      4.253057   395A      4.254128   396A      4.264756  
     397A      4.267373   398A      4.276919   399A      4.313878  
     400A      4.314317   401A      4.353613   402A      4.364840  
     403A      4.376044   404A      4.399703   405A      4.400797  
     406A      4.402546   407A      4.428539   408A      4.452048  
     409A      4.454098   410A      4.460967   411A      4.463744  
     412A      4.481476   413A      4.492416   414A      4.498279  
     415A      4.503217   416A      4.510798   417A      4.525428  
     418A      4.576974   419A      4.646573   420A      4.693514  
     421A      4.697926   422A      4.733530   423A      4.740213  
     424A      4.751082   425A      4.763770   426A      4.773509  
     427A      4.817393   428A      4.850940   429A      4.855142  
     430A      4.869230   431A      4.904193   432A      4.905304  
     433A      4.945824   434A      4.956321   435A      4.987272  
     436A      5.024630   437A      5.038867   438A      5.045444  
     439A      5.053637   440A      5.096691   441A      5.113280  
     442A      5.147803   443A      5.148536   444A      5.164504  
     445A      5.168913   446A      5.177615   447A      5.182403  
     448A      5.182743   449A      5.203303   450A      5.211118  
     451A      5.226773   452A      5.236576   453A      5.292013  
     454A      5.296141   455A      5.336850   456A      5.338389  
     457A      5.376197   458A      5.400582   459A      5.402878  
     460A      5.420596   461A      5.421013   462A      5.438048  
     463A      5.463846   464A      5.488617   465A      5.501899  
     466A      5.524873   467A      5.600829   468A      5.628525  
     469A      5.630976   470A      5.711368   471A      5.731075  
     472A      5.784251   473A      5.797146   474A      5.848948  
     475A      5.859017   476A      5.863416   477A      5.894480  
     478A      5.899169   479A      6.008625   480A      6.100533  
     481A      6.167476   482A      6.199727   483A      6.241746  
     484A      6.289917   485A      6.300658   486A      6.376133  
     487A      6.397301   488A      6.412159   489A      6.435935  
     490A      6.517602   491A      6.669114   492A      6.778195  
     493A      6.896207   494A      6.900129   495A      7.032935  
     496A      7.126101   497A      7.134238   498A      7.293792  
     499A      7.453106   500A     16.394880   501A     16.456678  
     502A     16.802786   503A     19.648475   504A     19.783793  
     505A     19.944062   506A     20.366772   507A     24.507516  
     508A     25.199919   509A     25.651965   510A    141.790593  

    Final Occupation by Irrep:
              A 
    DOCC [    21 ]

  @DF-RHF Final Energy:  -230.78155733952389

   => Energetics <=

    Nuclear Repulsion Energy =            203.6538916079341277
    One-Electron Energy =                -713.7643098548119269
    Two-Electron Energy =                 279.3288609073538851
    Total Energy =                       -230.7815573395238857

Computation Completed


Properties will be evaluated at   0.000000,   0.000000,   0.000000 [a0]

Properties computed using the SCF density matrix

  Nuclear Dipole Moment: [e a0]
     X:     0.0000      Y:    -0.0000      Z:    61.9435

  Electronic Dipole Moment: [e a0]
     X:     0.0000      Y:    -0.0000      Z:   -61.9415

  Dipole Moment: [e a0]
     X:     0.0000      Y:    -0.0000      Z:     0.0020     Total:     0.0020

  Dipole Moment: [D]
     X:     0.0000      Y:    -0.0000      Z:     0.0051     Total:     0.0051


*** tstop() called on node54.bme.utexas.edu at Tue Sep 10 13:37:35 2019
Module time:
	user time   =      68.08 seconds =       1.13 minutes
	system time =       1.44 seconds =       0.02 minutes
	total time  =         19 seconds =       0.32 minutes
Total time:
	user time   =     200.85 seconds =       3.35 minutes
	system time =       3.74 seconds =       0.06 minutes
	total time  =         55 seconds =       0.92 minutes

  //>>>>>>>>>>>>>>>>>>>>>>>>>>>>>>>>>>>//
  //            Monomer B HF           //
  //<<<<<<<<<<<<<<<<<<<<<<<<<<<<<<<<<<<//


*** tstart() called on node54.bme.utexas.edu
*** at Tue Sep 10 13:37:35 2019

   => Loading Basis Set <=

    Name: AUG-CC-PVTZ
    Role: ORBITAL
    Keyword: BASIS
    atoms 1-6         entry C          line   235 file /home/xy3866/psi4conda/share/psi4/basis/aug-cc-pvtz.gbs 
    atoms 7-12, 14-15 entry H          line    36 file /home/xy3866/psi4conda/share/psi4/basis/aug-cc-pvtz.gbs 
    atoms 13          entry S          line   902 file /home/xy3866/psi4conda/share/psi4/basis/aug-cc-pvtz.gbs 


         ---------------------------------------------------------
                                   SCF
               by Justin Turney, Rob Parrish, Andy Simmonett
                          and Daniel G. A. Smith
                              RHF Reference
                        4 Threads,  30517 MiB Core
         ---------------------------------------------------------

  ==> Geometry <==

    Molecular point group: c1
    Full point group: C2v

    Geometry (in Angstrom), charge = 0, multiplicity = 1:

       Center              X                  Y                   Z               Mass       
    ------------   -----------------  -----------------  -----------------  -----------------
      Gh(C)           0.000000000000    -1.393658000000     0.781105576034    12.000000000000
      Gh(C)           1.207737000000    -0.696816000000     0.779880576034    12.000000000000
      Gh(C)           1.207737000000     0.696816000000     0.779880576034    12.000000000000
      Gh(C)           0.000000000000     1.393658000000     0.781105576034    12.000000000000
      Gh(C)          -1.207737000000     0.696816000000     0.779880576034    12.000000000000
      Gh(C)          -1.207737000000    -0.696816000000     0.779880576034    12.000000000000
      Gh(H)           0.000000000000    -2.475320000000     0.786379576034     1.007825032230
      Gh(H)           2.144314000000    -1.237314000000     0.778981576034     1.007825032230
      Gh(H)           2.144314000000     1.237314000000     0.778981576034     1.007825032230
      Gh(H)           0.000000000000     2.475320000000     0.786379576034     1.007825032230
      Gh(H)          -2.144314000000     1.237314000000     0.778981576034     1.007825032230
      Gh(H)          -2.144314000000    -1.237314000000     0.778981576034     1.007825032230
         S            0.000000000000     0.000000000000    -1.847519023966    31.972071174400
         H            0.000000000000     0.954437000000    -0.911451023966     1.007825032230
         H            0.000000000000    -0.954437000000    -0.911451023966     1.007825032230

  Running in c1 symmetry.

  Rotational constants: A =      0.09427  B =      0.06828  C =      0.06781 [cm^-1]
  Rotational constants: A =   2826.03195  B =   2047.01348  C =   2032.77709 [MHz]
  Nuclear repulsion =   12.944044801570232

  Charge       = 0
  Multiplicity = 1
  Electrons    = 18
  Nalpha       = 9
  Nbeta        = 9

  ==> Algorithm <==

  SCF Algorithm Type is DF.
  DIIS enabled.
  MOM disabled.
  Fractional occupation disabled.
  Guess Type is SAD.
  Energy threshold   = 1.00e-08
  Density threshold  = 1.00e-08
  Integral threshold = 0.00e+00

  ==> Primary Basis <==

  Basis Set: AUG-CC-PVTZ
    Blend: AUG-CC-PVTZ
    Number of shells: 172
    Number of basis function: 510
    Number of Cartesian functions: 589
    Spherical Harmonics?: true
    Max angular momentum: 3

   => Loading Basis Set <=

    Name: (AUG-CC-PVTZ AUX)
    Role: JKFIT
    Keyword: DF_BASIS_SCF
    atoms 1-6         entry C          line   162 file /home/xy3866/psi4conda/share/psi4/basis/aug-cc-pvtz-jkfit.gbs 
    atoms 7-12, 14-15 entry H          line    70 file /home/xy3866/psi4conda/share/psi4/basis/aug-cc-pvtz-jkfit.gbs 
    atoms 13          entry S          line   730 file /home/xy3866/psi4conda/share/psi4/basis/aug-cc-pvtz-jkfit.gbs 

  ==> Pre-Iterations <==

   -------------------------------------------------------
    Irrep   Nso     Nmo     Nalpha   Nbeta   Ndocc  Nsocc
   -------------------------------------------------------
     A        510     510       0       0       0       0
   -------------------------------------------------------
    Total     510     510       9       9       9       0
   -------------------------------------------------------

  ==> Integral Setup <==

  ==> DiskDFJK: Density-Fitted J/K Matrices <==

    J tasked:                  Yes
    K tasked:                  Yes
    wK tasked:                  No
    OpenMP threads:              4
    Integrals threads:           4
    Memory [MiB]:            22888
    Algorithm:                Core
    Integral Cache:           LOAD
    Schwarz Cutoff:          1E-12
    Fitting Condition:       1E-10

   => Auxiliary Basis Set <=

  Basis Set: (AUG-CC-PVTZ AUX)
    Blend: AUG-CC-PVTZ-JKFIT
    Number of shells: 334
    Number of basis function: 1138
    Number of Cartesian functions: 1406
    Spherical Harmonics?: true
    Max angular momentum: 4

  Minimum eigenvalue in the overlap matrix is 2.6740868503E-07.
  Using Symmetric Orthogonalization.

  SCF Guess: Superposition of Atomic Densities via on-the-fly atomic UHF.

  ==> Iterations <==

                           Total Energy        Delta E     RMS |[F,P]|

   @DF-RHF iter SAD:  -398.42061470495503   -3.98421e+02   0.00000e+00 
   @DF-RHF iter   1:  -398.67953901158734   -2.58924e-01   4.23182e-04 DIIS
   @DF-RHF iter   2:  -398.70933350696646   -2.97945e-02   1.60036e-04 DIIS
   @DF-RHF iter   3:  -398.71306891202011   -3.73541e-03   3.91282e-05 DIIS
   @DF-RHF iter   4:  -398.71377321577415   -7.04304e-04   7.79186e-06 DIIS
   @DF-RHF iter   5:  -398.71380350986544   -3.02941e-05   1.15247e-06 DIIS
   @DF-RHF iter   6:  -398.71380409506912   -5.85204e-07   2.94331e-07 DIIS
   @DF-RHF iter   7:  -398.71380413595011   -4.08810e-08   7.41720e-08 DIIS
   @DF-RHF iter   8:  -398.71380413855718   -2.60707e-09   1.32463e-08 DIIS
   @DF-RHF iter   9:  -398.71380413862261   -6.54268e-11   2.57483e-09 DIIS
  Energy and wave function converged.


  ==> Post-Iterations <==

    Orbital Energies [Eh]
    ---------------------

    Doubly Occupied:                                                      

       1A    -91.967409     2A     -8.969118     3A     -6.650382  
       4A     -6.649617     5A     -6.648323     6A     -0.982571  
       7A     -0.587431     8A     -0.503550     9A     -0.385498  

    Virtual:                                                              

      10A      0.017640    11A      0.030005    12A      0.032472  
      13A      0.047008    14A      0.047613    15A      0.050052  
      16A      0.059450    17A      0.065160    18A      0.068999  
      19A      0.090545    20A      0.091053    21A      0.092532  
      22A      0.107751    23A      0.109732    24A      0.117106  
      25A      0.119792    26A      0.120482    27A      0.122944  
      28A      0.124727    29A      0.125525    30A      0.126586  
      31A      0.144387    32A      0.153235    33A      0.155310  
      34A      0.157345    35A      0.157428    36A      0.162075  
      37A      0.173741    38A      0.174086    39A      0.175783  
      40A      0.183968    41A      0.192632    42A      0.215340  
      43A      0.217316    44A      0.223892    45A      0.227345  
      46A      0.232776    47A      0.256815    48A      0.272363  
      49A      0.277396    50A      0.280141    51A      0.282911  
      52A      0.302834    53A      0.305445    54A      0.305527  
      55A      0.308322    56A      0.308896    57A      0.315130  
      58A      0.323066    59A      0.328151    60A      0.338188  
      61A      0.344980    62A      0.358126    63A      0.358798  
      64A      0.363492    65A      0.374741    66A      0.378353  
      67A      0.385838    68A      0.386973    69A      0.388621  
      70A      0.399429    71A      0.402368    72A      0.411869  
      73A      0.412038    74A      0.415764    75A      0.423953  
      76A      0.424709    77A      0.432995    78A      0.434486  
      79A      0.453277    80A      0.460775    81A      0.461286  
      82A      0.477963    83A      0.485276    84A      0.495021  
      85A      0.495878    86A      0.514571    87A      0.517077  
      88A      0.526215    89A      0.530801    90A      0.535004  
      91A      0.542399    92A      0.550839    93A      0.553804  
      94A      0.559134    95A      0.559390    96A      0.570589  
      97A      0.577223    98A      0.588402    99A      0.592905  
     100A      0.598860   101A      0.600608   102A      0.607665  
     103A      0.631623   104A      0.644978   105A      0.649146  
     106A      0.651487   107A      0.657113   108A      0.661831  
     109A      0.666854   110A      0.678106   111A      0.679984  
     112A      0.681754   113A      0.689061   114A      0.695466  
     115A      0.704000   116A      0.704572   117A      0.710860  
     118A      0.716774   119A      0.721144   120A      0.731841  
     121A      0.739516   122A      0.742049   123A      0.751519  
     124A      0.754690   125A      0.777587   126A      0.781583  
     127A      0.789994   128A      0.802194   129A      0.804057  
     130A      0.818650   131A      0.842411   132A      0.847329  
     133A      0.848882   134A      0.867392   135A      0.878069  
     136A      0.896848   137A      0.902132   138A      0.923193  
     139A      0.925465   140A      0.929261   141A      0.929992  
     142A      0.931965   143A      0.971826   144A      0.987616  
     145A      0.989545   146A      0.990119   147A      0.990554  
     148A      1.015949   149A      1.022949   150A      1.029169  
     151A      1.041483   152A      1.057876   153A      1.068290  
     154A      1.073884   155A      1.074888   156A      1.093914  
     157A      1.097617   158A      1.117620   159A      1.118825  
     160A      1.135265   161A      1.150218   162A      1.150847  
     163A      1.159113   164A      1.163461   165A      1.167576  
     166A      1.172884   167A      1.180134   168A      1.186775  
     169A      1.200670   170A      1.201501   171A      1.214222  
     172A      1.226057   173A      1.228557   174A      1.236433  
     175A      1.239103   176A      1.245132   177A      1.249366  
     178A      1.259828   179A      1.260745   180A      1.272786  
     181A      1.274219   182A      1.291448   183A      1.292814  
     184A      1.303477   185A      1.308641   186A      1.310040  
     187A      1.312390   188A      1.327618   189A      1.335441  
     190A      1.339001   191A      1.344546   192A      1.372259  
     193A      1.376979   194A      1.379048   195A      1.382947  
     196A      1.385184   197A      1.394175   198A      1.405094  
     199A      1.412884   200A      1.440537   201A      1.456101  
     202A      1.472111   203A      1.481376   204A      1.494088  
     205A      1.515138   206A      1.520851   207A      1.526942  
     208A      1.530863   209A      1.534605   210A      1.552338  
     211A      1.553748   212A      1.558852   213A      1.559185  
     214A      1.564415   215A      1.574840   216A      1.581532  
     217A      1.585230   218A      1.595514   219A      1.619630  
     220A      1.626784   221A      1.640770   222A      1.651191  
     223A      1.651235   224A      1.664526   225A      1.689532  
     226A      1.706640   227A      1.726851   228A      1.729261  
     229A      1.732186   230A      1.749198   231A      1.780931  
     232A      1.802920   233A      1.808190   234A      1.810029  
     235A      1.837871   236A      1.855180   237A      1.875565  
     238A      1.888553   239A      1.893630   240A      1.898196  
     241A      1.911747   242A      1.914497   243A      1.916655  
     244A      1.942445   245A      1.947375   246A      1.980150  
     247A      2.012008   248A      2.019520   249A      2.025070  
     250A      2.028478   251A      2.054090   252A      2.056607  
     253A      2.103572   254A      2.108215   255A      2.129787  
     256A      2.152167   257A      2.155630   258A      2.171512  
     259A      2.172178   260A      2.172979   261A      2.211502  
     262A      2.226604   263A      2.229882   264A      2.231302  
     265A      2.248094   266A      2.249988   267A      2.264360  
     268A      2.270269   269A      2.285680   270A      2.293828  
     271A      2.323943   272A      2.327628   273A      2.339381  
     274A      2.341506   275A      2.350873   276A      2.360312  
     277A      2.374909   278A      2.379748   279A      2.386623  
     280A      2.447825   281A      2.450171   282A      2.478538  
     283A      2.484415   284A      2.494671   285A      2.499388  
     286A      2.506406   287A      2.508757   288A      2.522755  
     289A      2.526209   290A      2.527165   291A      2.535142  
     292A      2.538357   293A      2.541995   294A      2.543045  
     295A      2.550171   296A      2.581155   297A      2.590036  
     298A      2.611125   299A      2.611291   300A      2.642792  
     301A      2.670982   302A      2.674394   303A      2.678455  
     304A      2.695183   305A      2.767144   306A      2.775828  
     307A      2.783733   308A      2.795094   309A      2.839947  
     310A      2.861418   311A      2.874175   312A      2.879225  
     313A      2.893143   314A      2.911401   315A      2.958443  
     316A      2.961881   317A      2.971691   318A      3.013366  
     319A      3.038222   320A      3.071048   321A      3.073032  
     322A      3.088983   323A      3.128187   324A      3.131226  
     325A      3.280605   326A      3.302896   327A      3.333192  
     328A      3.476355   329A      3.479371   330A      3.548362  
     331A      3.618164   332A      3.775045   333A      3.823976  
     334A      3.850887   335A      3.890955   336A      3.923217  
     337A      3.940178   338A      3.991291   339A      3.995608  
     340A      4.012322   341A      4.033195   342A      4.075109  
     343A      4.077757   344A      4.080862   345A      4.083891  
     346A      4.111404   347A      4.115929   348A      4.126575  
     349A      4.130569   350A      4.151197   351A      4.191895  
     352A      4.195720   353A      4.215551   354A      4.222226  
     355A      4.235942   356A      4.239076   357A      4.273541  
     358A      4.278070   359A      4.306267   360A      4.308125  
     361A      4.328833   362A      4.359398   363A      4.373099  
     364A      4.387196   365A      4.424587   366A      4.435366  
     367A      4.465395   368A      4.466557   369A      4.472033  
     370A      4.511533   371A      4.513527   372A      4.532027  
     373A      4.540188   374A      4.540189   375A      4.567089  
     376A      4.577809   377A      4.593440   378A      4.605388  
     379A      4.609903   380A      4.636059   381A      4.656241  
     382A      4.660896   383A      4.686761   384A      4.700618  
     385A      4.720776   386A      4.749083   387A      4.758388  
     388A      4.773221   389A      4.785707   390A      4.810466  
     391A      4.849851   392A      4.877710   393A      4.881886  
     394A      4.899097   395A      4.936544   396A      4.947224  
     397A      4.960842   398A      4.998155   399A      5.001930  
     400A      5.009747   401A      5.011757   402A      5.019068  
     403A      5.064163   404A      5.084699   405A      5.110472  
     406A      5.112058   407A      5.138920   408A      5.146095  
     409A      5.151041   410A      5.168420   411A      5.237461  
     412A      5.239738   413A      5.245815   414A      5.252519  
     415A      5.270078   416A      5.311382   417A      5.336322  
     418A      5.353136   419A      5.378857   420A      5.408092  
     421A      5.415584   422A      5.432357   423A      5.443877  
     424A      5.468450   425A      5.468684   426A      5.482837  
     427A      5.550097   428A      5.558672   429A      5.574841  
     430A      5.606385   431A      5.618776   432A      5.676816  
     433A      5.702218   434A      5.703464   435A      5.728693  
     436A      5.733474   437A      5.762311   438A      5.767163  
     439A      5.769032   440A      5.803481   441A      5.811098  
     442A      5.823056   443A      5.829124   444A      5.899468  
     445A      5.908366   446A      5.920170   447A      5.988705  
     448A      5.993957   449A      6.003859   450A      6.015764  
     451A      6.034775   452A      6.067409   453A      6.122252  
     454A      6.130078   455A      6.142151   456A      6.161204  
     457A      6.193263   458A      6.205485   459A      6.214237  
     460A      6.253823   461A      6.471764   462A      6.485478  
     463A      6.544194   464A      6.568137   465A      6.699608  
     466A      6.807855   467A      6.810546   468A      6.881174  
     469A      6.935169   470A      6.936634   471A      7.155603  
     472A      7.163738   473A      7.221172   474A      7.228402  
     475A      7.284363   476A      7.445322   477A      7.464641  
     478A      7.489737   479A      7.491887   480A      7.632102  
     481A      7.675654   482A      7.676889   483A      7.715465  
     484A      7.811864   485A      7.958647   486A      8.058196  
     487A      8.196729   488A      8.203957   489A      8.210340  
     490A      8.327461   491A      8.384320   492A      8.983159  
     493A      8.990796   494A      9.150305   495A      9.360265  
     496A      9.432817   497A      9.782909   498A     10.099357  
     499A     10.118900   500A     11.033023   501A     11.038279  
     502A     11.367657   503A     11.505705   504A     11.575169  
     505A     50.310811   506A     50.504407   507A     55.973705  
     508A     56.086616   509A     56.864832   510A     57.593460  

    Final Occupation by Irrep:
              A 
    DOCC [     9 ]

  @DF-RHF Final Energy:  -398.71380413862261

   => Energetics <=

    Nuclear Repulsion Energy =             12.9440448015702323
    One-Electron Energy =                -576.6278983216033112
    Two-Electron Energy =                 164.9700493814104334
    Total Energy =                       -398.7138041386226064

Computation Completed


Properties will be evaluated at   0.000000,   0.000000,   0.000000 [a0]

Properties computed using the SCF density matrix

  Nuclear Dipole Moment: [e a0]
     X:     0.0000      Y:     0.0000      Z:   -59.3057

  Electronic Dipole Moment: [e a0]
     X:    -0.0000      Y:     0.0000      Z:    59.7330

  Dipole Moment: [e a0]
     X:    -0.0000      Y:     0.0000      Z:     0.4274     Total:     0.4274

  Dipole Moment: [D]
     X:    -0.0000      Y:     0.0000      Z:     1.0863     Total:     1.0863


*** tstop() called on node54.bme.utexas.edu at Tue Sep 10 13:37:56 2019
Module time:
	user time   =      64.18 seconds =       1.07 minutes
	system time =       1.03 seconds =       0.02 minutes
	total time  =         21 seconds =       0.35 minutes
Total time:
	user time   =     265.05 seconds =       4.42 minutes
	system time =       4.77 seconds =       0.08 minutes
	total time  =         76 seconds =       1.27 minutes
  Constructing Basis Sets for SAPT...

   => Loading Basis Set <=

    Name: (AUG-CC-PVTZ AUX)
    Role: RIFIT
    Keyword: DF_BASIS_SAPT
    atoms 1-6         entry C          line   148 file /home/xy3866/psi4conda/share/psi4/basis/aug-cc-pvtz-ri.gbs 
    atoms 7-12, 14-15 entry H          line    30 file /home/xy3866/psi4conda/share/psi4/basis/aug-cc-pvtz-ri.gbs 
    atoms 13          entry S          line   666 file /home/xy3866/psi4conda/share/psi4/basis/aug-cc-pvtz-ri.gbs 


  //>>>>>>>>>>>>>>>>>>>>>>>>>>>>>>>>>>>//
  //               SAPT2+              //
  //<<<<<<<<<<<<<<<<<<<<<<<<<<<<<<<<<<<//


*** tstart() called on node54.bme.utexas.edu
*** at Tue Sep 10 13:37:56 2019

        SAPT2+  
    Ed Hohenstein
     6 June 2009

      Orbital Information
  --------------------------
    NSO        =       510
    NMO        =       510
    NRI        =      1151
    NOCC A     =        21
    NOCC B     =         9
    FOCC A     =         6
    FOCC B     =         5
    NVIR A     =       489
    NVIR B     =       501

    Estimated memory usage: 4967.8 MB

    Natural Orbital Cutoff:   1.000E-06
    Disp(T3) Truncation:            Yes
    CCD (vv|vv) Truncation:         Yes
    MBPT T2 Truncation:             Yes

    Monomer A: 130 virtual orbitals dropped
    Monomer B: 399 virtual orbitals dropped

