
    -----------------------------------------------------------------------
          Psi4: An Open-Source Ab Initio Electronic Structure Package
                               Psi4 1.3.2 release

                         Git: Rev {HEAD} ecbda83 


    R. M. Parrish, L. A. Burns, D. G. A. Smith, A. C. Simmonett,
    A. E. DePrince III, E. G. Hohenstein, U. Bozkaya, A. Yu. Sokolov,
    R. Di Remigio, R. M. Richard, J. F. Gonthier, A. M. James,
    H. R. McAlexander, A. Kumar, M. Saitow, X. Wang, B. P. Pritchard,
    P. Verma, H. F. Schaefer III, K. Patkowski, R. A. King, E. F. Valeev,
    F. A. Evangelista, J. M. Turney, T. D. Crawford, and C. D. Sherrill,
    J. Chem. Theory Comput. 13(7) pp 3185--3197 (2017).
    (doi: 10.1021/acs.jctc.7b00174)


                         Additional Contributions by
    P. Kraus, H. Kruse, M. H. Lechner, M. C. Schieber, R. A. Shaw,
    A. Alenaizan, R. Galvelis, Z. L. Glick, S. Lehtola, and J. P. Misiewicz

    -----------------------------------------------------------------------


    Psi4 started on: Tuesday, 10 September 2019 10:42AM

    Process ID: 38591
    Host:       node51.bme.utexas.edu
    PSIDATADIR: /home/xy3866/psi4conda/share/psi4
    Memory:     500.0 MiB
    Threads:    4
    
  ==> Input File <==

--------------------------------------------------------------------------
#psi4
#
memory 32 gb

molecule  {
0 1
  C        0.0000000    -1.3936580     1.0640200
  C        1.2077370    -0.6968160     1.0627950
  C        1.2077370     0.6968160     1.0627950
  C        0.0000000     1.3936580     1.0640200
  C       -1.2077370     0.6968160     1.0627950
  C       -1.2077370    -0.6968160     1.0627950
  H        0.0000000    -2.4753200     1.0692940
  H        2.1443140    -1.2373140     1.0618960
  H        2.1443140     1.2373140     1.0618960
  H        0.0000000     2.4753200     1.0692940
  H       -2.1443140     1.2373140     1.0618960
  H       -2.1443140    -1.2373140     1.0618960
--
0 1
  S        0.0000000     0.0000000    -2.5031074
  H        0.0000000     0.9544370    -1.5670394
  H        0.0000000    -0.9544370    -1.5670394
units angstrom
no_reorient  #important for SAPT in psi4, default
symmetry c1  #important for SAPT in psi4, default
}

set {
basis aug-cc-pVTZ
scf_type DF
freeze_core True
}
energy('sapt2+')
--------------------------------------------------------------------------

  Memory set to  29.802 GiB by Python driver.

  //>>>>>>>>>>>>>>>>>>>>>>>>>>>>>>>>>>>//
  //              Dimer HF             //
  //<<<<<<<<<<<<<<<<<<<<<<<<<<<<<<<<<<<//


*** tstart() called on node51.bme.utexas.edu
*** at Tue Sep 10 10:42:45 2019

   => Loading Basis Set <=

    Name: AUG-CC-PVTZ
    Role: ORBITAL
    Keyword: BASIS
    atoms 1-6         entry C          line   235 file /home/xy3866/psi4conda/share/psi4/basis/aug-cc-pvtz.gbs 
    atoms 7-12, 14-15 entry H          line    36 file /home/xy3866/psi4conda/share/psi4/basis/aug-cc-pvtz.gbs 
    atoms 13          entry S          line   902 file /home/xy3866/psi4conda/share/psi4/basis/aug-cc-pvtz.gbs 


         ---------------------------------------------------------
                                   SCF
               by Justin Turney, Rob Parrish, Andy Simmonett
                          and Daniel G. A. Smith
                              RHF Reference
                        4 Threads,  30517 MiB Core
         ---------------------------------------------------------

  ==> Geometry <==

    Molecular point group: c1
    Full point group: C2v

    Geometry (in Angstrom), charge = 0, multiplicity = 1:

       Center              X                  Y                   Z               Mass       
    ------------   -----------------  -----------------  -----------------  -----------------
         C            0.000000000000    -1.393658000000     1.065817184865    12.000000000000
         C            1.207737000000    -0.696816000000     1.064592184865    12.000000000000
         C            1.207737000000     0.696816000000     1.064592184865    12.000000000000
         C            0.000000000000     1.393658000000     1.065817184865    12.000000000000
         C           -1.207737000000     0.696816000000     1.064592184865    12.000000000000
         C           -1.207737000000    -0.696816000000     1.064592184865    12.000000000000
         H            0.000000000000    -2.475320000000     1.071091184865     1.007825032230
         H            2.144314000000    -1.237314000000     1.063693184865     1.007825032230
         H            2.144314000000     1.237314000000     1.063693184865     1.007825032230
         H            0.000000000000     2.475320000000     1.071091184865     1.007825032230
         H           -2.144314000000     1.237314000000     1.063693184865     1.007825032230
         H           -2.144314000000    -1.237314000000     1.063693184865     1.007825032230
         S            0.000000000000     0.000000000000    -2.501310215135    31.972071174400
         H            0.000000000000     0.954437000000    -1.565242215135     1.007825032230
         H            0.000000000000    -0.954437000000    -1.565242215135     1.007825032230

  Running in c1 symmetry.

  Rotational constants: A =      0.09427  B =      0.04412  C =      0.04392 [cm^-1]
  Rotational constants: A =   2826.03195  B =   1322.76838  C =   1316.80907 [MHz]
  Nuclear repulsion =  322.001984471897003

  Charge       = 0
  Multiplicity = 1
  Electrons    = 60
  Nalpha       = 30
  Nbeta        = 30

  ==> Algorithm <==

  SCF Algorithm Type is DF.
  DIIS enabled.
  MOM disabled.
  Fractional occupation disabled.
  Guess Type is SAD.
  Energy threshold   = 1.00e-08
  Density threshold  = 1.00e-08
  Integral threshold = 0.00e+00

  ==> Primary Basis <==

  Basis Set: AUG-CC-PVTZ
    Blend: AUG-CC-PVTZ
    Number of shells: 172
    Number of basis function: 510
    Number of Cartesian functions: 589
    Spherical Harmonics?: true
    Max angular momentum: 3

   => Loading Basis Set <=

    Name: (AUG-CC-PVTZ AUX)
    Role: JKFIT
    Keyword: DF_BASIS_SCF
    atoms 1-6         entry C          line   162 file /home/xy3866/psi4conda/share/psi4/basis/aug-cc-pvtz-jkfit.gbs 
    atoms 7-12, 14-15 entry H          line    70 file /home/xy3866/psi4conda/share/psi4/basis/aug-cc-pvtz-jkfit.gbs 
    atoms 13          entry S          line   730 file /home/xy3866/psi4conda/share/psi4/basis/aug-cc-pvtz-jkfit.gbs 

  ==> Pre-Iterations <==

   -------------------------------------------------------
    Irrep   Nso     Nmo     Nalpha   Nbeta   Ndocc  Nsocc
   -------------------------------------------------------
     A        510     510       0       0       0       0
   -------------------------------------------------------
    Total     510     510      30      30      30       0
   -------------------------------------------------------

  ==> Integral Setup <==

  ==> DiskDFJK: Density-Fitted J/K Matrices <==

    J tasked:                  Yes
    K tasked:                  Yes
    wK tasked:                  No
    OpenMP threads:              4
    Integrals threads:           4
    Memory [MiB]:            22888
    Algorithm:                Core
    Integral Cache:           SAVE
    Schwarz Cutoff:          1E-12
    Fitting Condition:       1E-10

   => Auxiliary Basis Set <=

  Basis Set: (AUG-CC-PVTZ AUX)
    Blend: AUG-CC-PVTZ-JKFIT
    Number of shells: 334
    Number of basis function: 1138
    Number of Cartesian functions: 1406
    Spherical Harmonics?: true
    Max angular momentum: 4

  Minimum eigenvalue in the overlap matrix is 2.6377923651E-07.
  Using Symmetric Orthogonalization.

  SCF Guess: Superposition of Atomic Densities via on-the-fly atomic UHF.

  ==> Iterations <==

                           Total Energy        Delta E     RMS |[F,P]|

   @DF-RHF iter SAD:  -628.77729616934869   -6.28777e+02   0.00000e+00 
   @DF-RHF iter   1:  -629.28466414791001   -5.07368e-01   1.12930e-03 DIIS
   @DF-RHF iter   2:  -629.45197078358501   -1.67307e-01   5.27416e-04 DIIS
   @DF-RHF iter   3:  -629.48840301731070   -3.64322e-02   1.02149e-04 DIIS
   @DF-RHF iter   4:  -629.49079516397376   -2.39215e-03   2.41039e-05 DIIS
   @DF-RHF iter   5:  -629.49094206490383   -1.46901e-04   6.43448e-06 DIIS
   @DF-RHF iter   6:  -629.49095667171241   -1.46068e-05   1.71699e-06 DIIS
   @DF-RHF iter   7:  -629.49095786659336   -1.19488e-06   4.67189e-07 DIIS
   @DF-RHF iter   8:  -629.49095794893992   -8.23466e-08   1.11372e-07 DIIS
   @DF-RHF iter   9:  -629.49095795326082   -4.32090e-09   2.56264e-08 DIIS
   @DF-RHF iter  10:  -629.49095795351127   -2.50452e-10   7.40926e-09 DIIS
  Energy and wave function converged.


  ==> Post-Iterations <==

    Orbital Energies [Eh]
    ---------------------

    Doubly Occupied:                                                      

       1A    -91.945328     2A    -11.245267     3A    -11.244821  
       4A    -11.244536     5A    -11.243540     6A    -11.243288  
       7A    -11.242800     8A     -8.947881     9A     -6.629232  
      10A     -6.628490    11A     -6.627245    12A     -1.160461  
      13A     -1.024738    14A     -1.024099    15A     -0.964272  
      16A     -0.833448    17A     -0.833114    18A     -0.718687  
      19A     -0.652825    20A     -0.628249    21A     -0.597242  
      22A     -0.596860    23A     -0.571100    24A     -0.525645  
      25A     -0.503869    26A     -0.503523    27A     -0.471942  
      28A     -0.372574    29A     -0.347095    30A     -0.341783  

    Virtual:                                                              

      31A      0.027322    32A      0.032570    33A      0.033994  
      34A      0.046307    35A      0.046521    36A      0.052111  
      37A      0.061720    38A      0.063238    39A      0.092090  
      40A      0.094474    41A      0.096440    42A      0.104017  
      43A      0.110357    44A      0.117069    45A      0.117475  
      46A      0.120385    47A      0.121160    48A      0.124467  
      49A      0.124507    50A      0.128784    51A      0.132392  
      52A      0.146896    53A      0.150390    54A      0.151630  
      55A      0.151654    56A      0.155351    57A      0.155976  
      58A      0.158373    59A      0.166615    60A      0.167112  
      61A      0.176678    62A      0.196412    63A      0.204190  
      64A      0.229365    65A      0.229628    66A      0.239712  
      67A      0.242396    68A      0.254850    69A      0.261261  
      70A      0.271145    71A      0.276318    72A      0.297054  
      73A      0.297398    74A      0.305120    75A      0.306595  
      76A      0.307500    77A      0.311836    78A      0.323571  
      79A      0.325307    80A      0.326514    81A      0.334222  
      82A      0.335037    83A      0.343852    84A      0.344658  
      85A      0.346184    86A      0.347317    87A      0.347878  
      88A      0.361757    89A      0.364460    90A      0.370377  
      91A      0.376658    92A      0.382367    93A      0.392378  
      94A      0.403269    95A      0.419493    96A      0.425514  
      97A      0.428989    98A      0.437715    99A      0.448785  
     100A      0.450401   101A      0.460267   102A      0.463786  
     103A      0.471043   104A      0.476825   105A      0.479338  
     106A      0.480868   107A      0.484805   108A      0.493793  
     109A      0.494671   110A      0.497488   111A      0.500526  
     112A      0.504123   113A      0.513698   114A      0.514806  
     115A      0.522275   116A      0.525660   117A      0.528601  
     118A      0.534332   119A      0.540513   120A      0.551744  
     121A      0.557327   122A      0.563203   123A      0.564470  
     124A      0.600259   125A      0.610633   126A      0.617931  
     127A      0.626418   128A      0.633928   129A      0.636490  
     130A      0.652196   131A      0.652208   132A      0.652516  
     133A      0.657838   134A      0.666308   135A      0.670261  
     136A      0.690922   137A      0.698773   138A      0.704488  
     139A      0.707975   140A      0.722689   141A      0.729430  
     142A      0.733114   143A      0.754853   144A      0.756773  
     145A      0.758109   146A      0.779720   147A      0.779921  
     148A      0.788738   149A      0.789885   150A      0.794796  
     151A      0.796420   152A      0.808095   153A      0.811341  
     154A      0.812986   155A      0.830163   156A      0.834593  
     157A      0.855180   158A      0.855884   159A      0.857899  
     160A      0.870582   161A      0.875432   162A      0.875864  
     163A      0.882705   164A      0.894280   165A      0.894641  
     166A      0.901263   167A      0.902656   168A      0.904908  
     169A      0.918013   170A      0.938293   171A      0.940558  
     172A      0.949557   173A      0.954055   174A      0.967830  
     175A      0.968560   176A      0.982320   177A      0.983220  
     178A      1.008351   179A      1.027695   180A      1.036690  
     181A      1.037101   182A      1.052029   183A      1.053518  
     184A      1.066129   185A      1.079560   186A      1.080054  
     187A      1.084181   188A      1.093147   189A      1.095157  
     190A      1.100052   191A      1.107207   192A      1.115941  
     193A      1.118478   194A      1.118607   195A      1.132780  
     196A      1.133303   197A      1.140306   198A      1.143205  
     199A      1.152503   200A      1.164548   201A      1.165896  
     202A      1.168604   203A      1.176756   204A      1.189237  
     205A      1.194774   206A      1.203352   207A      1.207909  
     208A      1.216083   209A      1.222268   210A      1.229646  
     211A      1.240636   212A      1.246305   213A      1.258579  
     214A      1.259206   215A      1.269663   216A      1.275597  
     217A      1.296493   218A      1.300239   219A      1.302170  
     220A      1.302372   221A      1.316123   222A      1.335818  
     223A      1.345002   224A      1.357526   225A      1.380156  
     226A      1.382764   227A      1.394947   228A      1.395421  
     229A      1.418224   230A      1.419967   231A      1.437581  
     232A      1.441398   233A      1.442153   234A      1.459409  
     235A      1.460227   236A      1.467231   237A      1.471282  
     238A      1.503375   239A      1.524346   240A      1.533574  
     241A      1.541973   242A      1.544422   243A      1.544771  
     244A      1.550499   245A      1.565048   246A      1.584628  
     247A      1.593139   248A      1.623852   249A      1.666622  
     250A      1.686134   251A      1.695028   252A      1.704587  
     253A      1.711824   254A      1.718155   255A      1.722961  
     256A      1.731290   257A      1.753566   258A      1.758944  
     259A      1.773016   260A      1.787262   261A      1.793081  
     262A      1.800643   263A      1.803245   264A      1.817541  
     265A      1.828458   266A      1.832632   267A      1.841660  
     268A      1.850970   269A      1.861718   270A      1.864726  
     271A      1.889151   272A      1.907923   273A      1.915196  
     274A      1.931942   275A      1.944162   276A      1.951915  
     277A      1.973456   278A      1.982656   279A      1.999843  
     280A      2.022881   281A      2.025999   282A      2.029952  
     283A      2.035248   284A      2.035986   285A      2.051317  
     286A      2.065089   287A      2.077767   288A      2.086180  
     289A      2.090117   290A      2.090864   291A      2.104271  
     292A      2.110484   293A      2.133307   294A      2.138347  
     295A      2.150666   296A      2.200119   297A      2.222190  
     298A      2.235534   299A      2.265289   300A      2.273247  
     301A      2.275258   302A      2.317691   303A      2.342121  
     304A      2.342895   305A      2.348942   306A      2.357885  
     307A      2.363105   308A      2.367325   309A      2.400763  
     310A      2.407375   311A      2.417850   312A      2.426390  
     313A      2.464270   314A      2.479491   315A      2.485556  
     316A      2.499109   317A      2.512663   318A      2.517995  
     319A      2.526468   320A      2.563673   321A      2.570110  
     322A      2.585171   323A      2.590774   324A      2.597391  
     325A      2.643789   326A      2.718423   327A      2.720053  
     328A      2.748485   329A      2.760124   330A      2.787408  
     331A      2.787534   332A      2.804080   333A      2.807885  
     334A      2.841263   335A      2.845276   336A      2.961071  
     337A      3.030473   338A      3.078994   339A      3.082979  
     340A      3.125120   341A      3.186320   342A      3.209676  
     343A      3.238133   344A      3.267684   345A      3.286648  
     346A      3.329565   347A      3.345843   348A      3.353566  
     349A      3.360441   350A      3.377177   351A      3.377393  
     352A      3.377567   353A      3.397394   354A      3.409894  
     355A      3.413714   356A      3.434144   357A      3.437575  
     358A      3.462998   359A      3.472871   360A      3.477968  
     361A      3.538058   362A      3.539369   363A      3.545690  
     364A      3.571762   365A      3.608720   366A      3.609177  
     367A      3.623291   368A      3.646454   369A      3.661694  
     370A      3.666958   371A      3.685666   372A      3.691009  
     373A      3.695799   374A      3.752277   375A      3.764438  
     376A      3.789249   377A      3.804973   378A      3.812817  
     379A      3.815533   380A      3.829462   381A      3.835766  
     382A      3.842791   383A      3.843376   384A      3.901543  
     385A      3.903537   386A      3.915853   387A      3.942296  
     388A      3.953308   389A      3.970476   390A      3.975014  
     391A      3.989690   392A      3.995911   393A      4.014608  
     394A      4.045743   395A      4.050307   396A      4.052251  
     397A      4.062457   398A      4.085442   399A      4.098681  
     400A      4.105467   401A      4.112162   402A      4.128817  
     403A      4.132152   404A      4.142680   405A      4.163880  
     406A      4.170314   407A      4.198358   408A      4.199800  
     409A      4.240973   410A      4.271686   411A      4.282873  
     412A      4.299263   413A      4.305749   414A      4.333602  
     415A      4.346064   416A      4.358704   417A      4.363220  
     418A      4.374541   419A      4.404544   420A      4.407791  
     421A      4.420859   422A      4.441894   423A      4.444170  
     424A      4.447354   425A      4.454281   426A      4.465300  
     427A      4.483521   428A      4.490233   429A      4.498073  
     430A      4.502100   431A      4.507345   432A      4.536512  
     433A      4.544417   434A      4.595427   435A      4.602636  
     436A      4.622054   437A      4.695062   438A      4.706474  
     439A      4.728442   440A      4.732190   441A      4.733218  
     442A      4.746641   443A      4.790544   444A      4.793776  
     445A      4.801188   446A      4.821707   447A      4.863321  
     448A      4.878866   449A      4.883527   450A      4.925802  
     451A      4.970616   452A      4.989888   453A      5.009158  
     454A      5.027724   455A      5.051609   456A      5.076799  
     457A      5.086699   458A      5.111380   459A      5.122177  
     460A      5.122625   461A      5.139742   462A      5.163935  
     463A      5.165264   464A      5.175489   465A      5.176531  
     466A      5.184286   467A      5.190111   468A      5.234964  
     469A      5.237443   470A      5.239293   471A      5.336886  
     472A      5.341204   473A      5.350596   474A      5.407541  
     475A      5.434993   476A      5.437101   477A      5.437866  
     478A      5.447749   479A      5.540358   480A      5.548073  
     481A      5.654780   482A      5.748365   483A      5.789228  
     484A      5.791979   485A      5.793004   486A      5.850978  
     487A      5.879925   488A      5.978529   489A      6.031505  
     490A      6.204249   491A      6.244175   492A      6.264527  
     493A      6.266137   494A      6.374151   495A      6.391620  
     496A      6.394426   497A      6.649987   498A      6.673571  
     499A      6.868409   500A      6.882973   501A      7.021878  
     502A      7.223468   503A      7.435989   504A      8.191356  
     505A     16.055248   506A     16.065477   507A     18.565767  
     508A     19.446239   509A     19.570047   510A     19.709650  

    Final Occupation by Irrep:
              A 
    DOCC [    30 ]

  @DF-RHF Final Energy:  -629.49095795351127

   => Energetics <=

    Nuclear Repulsion Energy =            322.0019844718970035
    One-Electron Energy =               -1501.1579725462415809
    Two-Electron Energy =                 549.6650301208333076
    Total Energy =                       -629.4909579535112698

Computation Completed


Properties will be evaluated at   0.000000,   0.000000,   0.000000 [a0]

Properties computed using the SCF density matrix

  Nuclear Dipole Moment: [e a0]
     X:     0.0000      Y:    -0.0000      Z:     2.9962

  Electronic Dipole Moment: [e a0]
     X:     0.0000      Y:     0.0000      Z:    -2.3295

  Dipole Moment: [e a0]
     X:     0.0000      Y:     0.0000      Z:     0.6667     Total:     0.6667

  Dipole Moment: [D]
     X:     0.0000      Y:     0.0000      Z:     1.6947     Total:     1.6947


*** tstop() called on node51.bme.utexas.edu at Tue Sep 10 10:43:32 2019
Module time:
	user time   =     140.68 seconds =       2.34 minutes
	system time =       2.54 seconds =       0.04 minutes
	total time  =         47 seconds =       0.78 minutes
Total time:
	user time   =     140.68 seconds =       2.34 minutes
	system time =       2.54 seconds =       0.04 minutes
	total time  =         47 seconds =       0.78 minutes

  //>>>>>>>>>>>>>>>>>>>>>>>>>>>>>>>>>>>//
  //            Monomer A HF           //
  //<<<<<<<<<<<<<<<<<<<<<<<<<<<<<<<<<<<//


*** tstart() called on node51.bme.utexas.edu
*** at Tue Sep 10 10:43:32 2019

   => Loading Basis Set <=

    Name: AUG-CC-PVTZ
    Role: ORBITAL
    Keyword: BASIS
    atoms 1-6         entry C          line   235 file /home/xy3866/psi4conda/share/psi4/basis/aug-cc-pvtz.gbs 
    atoms 7-12, 14-15 entry H          line    36 file /home/xy3866/psi4conda/share/psi4/basis/aug-cc-pvtz.gbs 
    atoms 13          entry S          line   902 file /home/xy3866/psi4conda/share/psi4/basis/aug-cc-pvtz.gbs 


         ---------------------------------------------------------
                                   SCF
               by Justin Turney, Rob Parrish, Andy Simmonett
                          and Daniel G. A. Smith
                              RHF Reference
                        4 Threads,  30517 MiB Core
         ---------------------------------------------------------

  ==> Geometry <==

    Molecular point group: c1
    Full point group: C2v

    Geometry (in Angstrom), charge = 0, multiplicity = 1:

       Center              X                  Y                   Z               Mass       
    ------------   -----------------  -----------------  -----------------  -----------------
         C            0.000000000000    -1.393658000000     1.065817184865    12.000000000000
         C            1.207737000000    -0.696816000000     1.064592184865    12.000000000000
         C            1.207737000000     0.696816000000     1.064592184865    12.000000000000
         C            0.000000000000     1.393658000000     1.065817184865    12.000000000000
         C           -1.207737000000     0.696816000000     1.064592184865    12.000000000000
         C           -1.207737000000    -0.696816000000     1.064592184865    12.000000000000
         H            0.000000000000    -2.475320000000     1.071091184865     1.007825032230
         H            2.144314000000    -1.237314000000     1.063693184865     1.007825032230
         H            2.144314000000     1.237314000000     1.063693184865     1.007825032230
         H            0.000000000000     2.475320000000     1.071091184865     1.007825032230
         H           -2.144314000000     1.237314000000     1.063693184865     1.007825032230
         H           -2.144314000000    -1.237314000000     1.063693184865     1.007825032230
      Gh(S)           0.000000000000     0.000000000000    -2.501310215135    31.972071174400
      Gh(H)           0.000000000000     0.954437000000    -1.565242215135     1.007825032230
      Gh(H)           0.000000000000    -0.954437000000    -1.565242215135     1.007825032230

  Running in c1 symmetry.

  Rotational constants: A =      0.09427  B =      0.04412  C =      0.04392 [cm^-1]
  Rotational constants: A =   2826.03195  B =   1322.76838  C =   1316.80907 [MHz]
  Nuclear repulsion =  203.653891607934128

  Charge       = 0
  Multiplicity = 1
  Electrons    = 42
  Nalpha       = 21
  Nbeta        = 21

  ==> Algorithm <==

  SCF Algorithm Type is DF.
  DIIS enabled.
  MOM disabled.
  Fractional occupation disabled.
  Guess Type is SAD.
  Energy threshold   = 1.00e-08
  Density threshold  = 1.00e-08
  Integral threshold = 0.00e+00

  ==> Primary Basis <==

  Basis Set: AUG-CC-PVTZ
    Blend: AUG-CC-PVTZ
    Number of shells: 172
    Number of basis function: 510
    Number of Cartesian functions: 589
    Spherical Harmonics?: true
    Max angular momentum: 3

   => Loading Basis Set <=

    Name: (AUG-CC-PVTZ AUX)
    Role: JKFIT
    Keyword: DF_BASIS_SCF
    atoms 1-6         entry C          line   162 file /home/xy3866/psi4conda/share/psi4/basis/aug-cc-pvtz-jkfit.gbs 
    atoms 7-12, 14-15 entry H          line    70 file /home/xy3866/psi4conda/share/psi4/basis/aug-cc-pvtz-jkfit.gbs 
    atoms 13          entry S          line   730 file /home/xy3866/psi4conda/share/psi4/basis/aug-cc-pvtz-jkfit.gbs 

  ==> Pre-Iterations <==

   -------------------------------------------------------
    Irrep   Nso     Nmo     Nalpha   Nbeta   Ndocc  Nsocc
   -------------------------------------------------------
     A        510     510       0       0       0       0
   -------------------------------------------------------
    Total     510     510      21      21      21       0
   -------------------------------------------------------

  ==> Integral Setup <==

  ==> DiskDFJK: Density-Fitted J/K Matrices <==

    J tasked:                  Yes
    K tasked:                  Yes
    wK tasked:                  No
    OpenMP threads:              4
    Integrals threads:           4
    Memory [MiB]:            22888
    Algorithm:                Core
    Integral Cache:           LOAD
    Schwarz Cutoff:          1E-12
    Fitting Condition:       1E-10

   => Auxiliary Basis Set <=

  Basis Set: (AUG-CC-PVTZ AUX)
    Blend: AUG-CC-PVTZ-JKFIT
    Number of shells: 334
    Number of basis function: 1138
    Number of Cartesian functions: 1406
    Spherical Harmonics?: true
    Max angular momentum: 4

  Minimum eigenvalue in the overlap matrix is 2.6377923651E-07.
  Using Symmetric Orthogonalization.

  SCF Guess: Superposition of Atomic Densities via on-the-fly atomic UHF.

  ==> Iterations <==

                           Total Energy        Delta E     RMS |[F,P]|

   @DF-RHF iter SAD:  -230.19001585497057   -2.30190e+02   0.00000e+00 
   @DF-RHF iter   1:  -230.60094551719709   -4.10930e-01   1.07227e-03 DIIS
   @DF-RHF iter   2:  -230.74291710621804   -1.41972e-01   5.31669e-04 DIIS
   @DF-RHF iter   3:  -230.77979993762563   -3.68828e-02   8.49907e-05 DIIS
   @DF-RHF iter   4:  -230.78134803055980   -1.54809e-03   1.05043e-05 DIIS
   @DF-RHF iter   5:  -230.78137695830617   -2.89277e-05   1.91467e-06 DIIS
   @DF-RHF iter   6:  -230.78137798168945   -1.02338e-06   2.18553e-07 DIIS
   @DF-RHF iter   7:  -230.78137799743936   -1.57499e-08   3.44580e-08 DIIS
   @DF-RHF iter   8:  -230.78137799775965   -3.20284e-10   1.47255e-08 DIIS
   @DF-RHF iter   9:  -230.78137799780285   -4.32010e-11   2.99464e-09 DIIS
  Energy and wave function converged.


  ==> Post-Iterations <==

    Orbital Energies [Eh]
    ---------------------

    Doubly Occupied:                                                      

       1A    -11.236362     2A    -11.235816     3A    -11.235755  
       4A    -11.234573     5A    -11.234509     6A    -11.233934  
       7A     -1.150200     8A     -1.014910     9A     -1.014529  
      10A     -0.824196    11A     -0.824028    12A     -0.709609  
      13A     -0.644240    14A     -0.619030    15A     -0.588276  
      16A     -0.587872    17A     -0.502283    18A     -0.494956  
      19A     -0.494863    20A     -0.336882    21A     -0.336605  

    Virtual:                                                              

      22A      0.027704    23A      0.034514    24A      0.034622  
      25A      0.043030    26A      0.048027    27A      0.048029  
      28A      0.060740    29A      0.064499    30A      0.092728  
      31A      0.097170    32A      0.102307    33A      0.102453  
      34A      0.108144    35A      0.111295    36A      0.113160  
      37A      0.122162    38A      0.124564    39A      0.127159  
      40A      0.127712    41A      0.127866    42A      0.130815  
      43A      0.136584    44A      0.151903    45A      0.154595  
      46A      0.155411    47A      0.157235    48A      0.158138  
      49A      0.158230    50A      0.160374    51A      0.167508  
      52A      0.168764    53A      0.190879    54A      0.231210  
      55A      0.244252    56A      0.245114    57A      0.247558  
      58A      0.253562    59A      0.254094    60A      0.286998  
      61A      0.288328    62A      0.291585    63A      0.298339  
      64A      0.299868    65A      0.302201    66A      0.309958  
      67A      0.312989    68A      0.317450    69A      0.325310  
      70A      0.327555    71A      0.331749    72A      0.340201  
      73A      0.340376    74A      0.347091    75A      0.348359  
      76A      0.349252    77A      0.359555    78A      0.361767  
      79A      0.366852    80A      0.370587    81A      0.378744  
      82A      0.389147    83A      0.395798    84A      0.398554  
      85A      0.398979    86A      0.400397    87A      0.417470  
      88A      0.446599    89A      0.449436    90A      0.455526  
      91A      0.456697    92A      0.460106    93A      0.461583  
      94A      0.473154    95A      0.477473    96A      0.483492  
      97A      0.486244    98A      0.486975    99A      0.497621  
     100A      0.501476   101A      0.504084   102A      0.506441  
     103A      0.515387   104A      0.523919   105A      0.527585  
     106A      0.529599   107A      0.533996   108A      0.536538  
     109A      0.545819   110A      0.557329   111A      0.559213  
     112A      0.567125   113A      0.571328   114A      0.576984  
     115A      0.595029   116A      0.611767   117A      0.632787  
     118A      0.633940   119A      0.638302   120A      0.656573  
     121A      0.657449   122A      0.658614   123A      0.658677  
     124A      0.660295   125A      0.664204   126A      0.680801  
     127A      0.687852   128A      0.703192   129A      0.709406  
     130A      0.713428   131A      0.716272   132A      0.734087  
     133A      0.748048   134A      0.752789   135A      0.753032  
     136A      0.775704   137A      0.784627   138A      0.797090  
     139A      0.798241   140A      0.807438   141A      0.816824  
     142A      0.817484   143A      0.829297   144A      0.836930  
     145A      0.852992   146A      0.863439   147A      0.867793  
     148A      0.873690   149A      0.876611   150A      0.888776  
     151A      0.893386   152A      0.903088   153A      0.905174  
     154A      0.909812   155A      0.910840   156A      0.917074  
     157A      0.920822   158A      0.931938   159A      0.954558  
     160A      0.962672   161A      0.989327   162A      0.991380  
     163A      0.995451   164A      0.997430   165A      1.014878  
     166A      1.038419   167A      1.040577   168A      1.051277  
     169A      1.054143   170A      1.063164   171A      1.070156  
     172A      1.073137   173A      1.085634   174A      1.094851  
     175A      1.097060   176A      1.100054   177A      1.100564  
     178A      1.107252   179A      1.115838   180A      1.115969  
     181A      1.118850   182A      1.135438   183A      1.142647  
     184A      1.143067   185A      1.144076   186A      1.146368  
     187A      1.154822   188A      1.155139   189A      1.160597  
     190A      1.164413   191A      1.178358   192A      1.183484  
     193A      1.196107   194A      1.197464   195A      1.206715  
     196A      1.210288   197A      1.216591   198A      1.224512  
     199A      1.236216   200A      1.245149   201A      1.246645  
     202A      1.248924   203A      1.268505   204A      1.273518  
     205A      1.281737   206A      1.291314   207A      1.291997  
     208A      1.296200   209A      1.314318   210A      1.316708  
     211A      1.344097   212A      1.354627   213A      1.357902  
     214A      1.364148   215A      1.367939   216A      1.384292  
     217A      1.387338   218A      1.393286   219A      1.405996  
     220A      1.406821   221A      1.411911   222A      1.424096  
     223A      1.452975   224A      1.459489   225A      1.463717  
     226A      1.467313   227A      1.482740   228A      1.491474  
     229A      1.494480   230A      1.508929   231A      1.520947  
     232A      1.538093   233A      1.548580   234A      1.566446  
     235A      1.567762   236A      1.575375   237A      1.623858  
     238A      1.625068   239A      1.641316   240A      1.643186  
     241A      1.677335   242A      1.680526   243A      1.702214  
     244A      1.711343   245A      1.726027   246A      1.728789  
     247A      1.739180   248A      1.743257   249A      1.765732  
     250A      1.766587   251A      1.774853   252A      1.801288  
     253A      1.803491   254A      1.818163   255A      1.819751  
     256A      1.842111   257A      1.846932   258A      1.862023  
     259A      1.866506   260A      1.880086   261A      1.883984  
     262A      1.923561   263A      1.927285   264A      1.953481  
     265A      1.963600   266A      1.981962   267A      1.989373  
     268A      1.999062   269A      1.999127   270A      2.002915  
     271A      2.022769   272A      2.031885   273A      2.041743  
     274A      2.060199   275A      2.066121   276A      2.067189  
     277A      2.079035   278A      2.091385   279A      2.102775  
     280A      2.109138   281A      2.111818   282A      2.127425  
     283A      2.148480   284A      2.156541   285A      2.174974  
     286A      2.183850   287A      2.213553   288A      2.229095  
     289A      2.279809   290A      2.282788   291A      2.283319  
     292A      2.301150   293A      2.343271   294A      2.352164  
     295A      2.364924   296A      2.369750   297A      2.377851  
     298A      2.391102   299A      2.404892   300A      2.415058  
     301A      2.469065   302A      2.472185   303A      2.499726  
     304A      2.522783   305A      2.526195   306A      2.548251  
     307A      2.570843   308A      2.581008   309A      2.602550  
     310A      2.608679   311A      2.609010   312A      2.751303  
     313A      2.755132   314A      2.765534   315A      2.794419  
     316A      2.846449   317A      2.848660   318A      2.907571  
     319A      2.991473   320A      3.022534   321A      3.051485  
     322A      3.093475   323A      3.099311   324A      3.115426  
     325A      3.132163   326A      3.167955   327A      3.257687  
     328A      3.272899   329A      3.278483   330A      3.282537  
     331A      3.296865   332A      3.306523   333A      3.340961  
     334A      3.353354   335A      3.364517   336A      3.365228  
     337A      3.387167   338A      3.390694   339A      3.411329  
     340A      3.420217   341A      3.422838   342A      3.451415  
     343A      3.457760   344A      3.476417   345A      3.482060  
     346A      3.501939   347A      3.506457   348A      3.545569  
     349A      3.546091   350A      3.571906   351A      3.577225  
     352A      3.593692   353A      3.616460   354A      3.635220  
     355A      3.640135   356A      3.666019   357A      3.668418  
     358A      3.669040   359A      3.677433   360A      3.683063  
     361A      3.712459   362A      3.717774   363A      3.725016  
     364A      3.745301   365A      3.777156   366A      3.789587  
     367A      3.821757   368A      3.831096   369A      3.841804  
     370A      3.845678   371A      3.845914   372A      3.847940  
     373A      3.868797   374A      3.879129   375A      3.920747  
     376A      3.931253   377A      3.936271   378A      3.938748  
     379A      3.961589   380A      3.983523   381A      4.001909  
     382A      4.004998   383A      4.011524   384A      4.020710  
     385A      4.030445   386A      4.057088   387A      4.058465  
     388A      4.066821   389A      4.072023   390A      4.111261  
     391A      4.115868   392A      4.139021   393A      4.141579  
     394A      4.143654   395A      4.163600   396A      4.172596  
     397A      4.213492   398A      4.224092   399A      4.273901  
     400A      4.301639   401A      4.316090   402A      4.340293  
     403A      4.352622   404A      4.365580   405A      4.369514  
     406A      4.380743   407A      4.381983   408A      4.383126  
     409A      4.406651   410A      4.412983   411A      4.429016  
     412A      4.454992   413A      4.455747   414A      4.462170  
     415A      4.473840   416A      4.481890   417A      4.484968  
     418A      4.506469   419A      4.509417   420A      4.513357  
     421A      4.521557   422A      4.605454   423A      4.611732  
     424A      4.669312   425A      4.703429   426A      4.719587  
     427A      4.729980   428A      4.732702   429A      4.737342  
     430A      4.798878   431A      4.801402   432A      4.809650  
     433A      4.844150   434A      4.885595   435A      4.889473  
     436A      4.890956   437A      4.893413   438A      4.918076  
     439A      4.922010   440A      4.945016   441A      4.956737  
     442A      5.033602   443A      5.035888   444A      5.085544  
     445A      5.098001   446A      5.112699   447A      5.125254  
     448A      5.140515   449A      5.150945   450A      5.162731  
     451A      5.171334   452A      5.174582   453A      5.175813  
     454A      5.183307   455A      5.187243   456A      5.194492  
     457A      5.209995   458A      5.237906   459A      5.238478  
     460A      5.254919   461A      5.265430   462A      5.338155  
     463A      5.346644   464A      5.358980   465A      5.364494  
     466A      5.386141   467A      5.431234   468A      5.443833  
     469A      5.446444   470A      5.447018   471A      5.459968  
     472A      5.557448   473A      5.562918   474A      5.733276  
     475A      5.757547   476A      5.790970   477A      5.797589  
     478A      5.802671   479A      5.859373   480A      5.889126  
     481A      5.987619   482A      5.990085   483A      6.042293  
     484A      6.214160   485A      6.256806   486A      6.273275  
     487A      6.274897   488A      6.383075   489A      6.400814  
     490A      6.405219   491A      6.658968   492A      6.684628  
     493A      6.850061   494A      6.865622   495A      6.891458  
     496A      6.909509   497A      7.030863   498A      7.232300  
     499A      7.444914   500A     15.506271   501A     16.064136  
     502A     16.075736   503A     18.580172   504A     19.454908  
     505A     19.579262   506A     19.718142   507A     24.154599  
     508A     24.896427   509A     25.173986   510A    141.730539  

    Final Occupation by Irrep:
              A 
    DOCC [    21 ]

  @DF-RHF Final Energy:  -230.78137799780285

   => Energetics <=

    Nuclear Repulsion Energy =            203.6538916079341277
    One-Electron Energy =                -713.7636883329063267
    Two-Electron Energy =                 279.3284187271693213
    Total Energy =                       -230.7813779978028492

Computation Completed


Properties will be evaluated at   0.000000,   0.000000,   0.000000 [a0]

Properties computed using the SCF density matrix

  Nuclear Dipole Moment: [e a0]
     X:     0.0000      Y:    -0.0000      Z:    84.5406

  Electronic Dipole Moment: [e a0]
     X:     0.0000      Y:     0.0000      Z:   -84.5386

  Dipole Moment: [e a0]
     X:     0.0000      Y:     0.0000      Z:     0.0021     Total:     0.0021

  Dipole Moment: [D]
     X:     0.0000      Y:     0.0000      Z:     0.0052     Total:     0.0052


*** tstop() called on node51.bme.utexas.edu at Tue Sep 10 10:43:55 2019
Module time:
	user time   =      79.22 seconds =       1.32 minutes
	system time =       1.55 seconds =       0.03 minutes
	total time  =         23 seconds =       0.38 minutes
Total time:
	user time   =     219.92 seconds =       3.67 minutes
	system time =       4.10 seconds =       0.07 minutes
	total time  =         70 seconds =       1.17 minutes

  //>>>>>>>>>>>>>>>>>>>>>>>>>>>>>>>>>>>//
  //            Monomer B HF           //
  //<<<<<<<<<<<<<<<<<<<<<<<<<<<<<<<<<<<//


*** tstart() called on node51.bme.utexas.edu
*** at Tue Sep 10 10:43:55 2019

   => Loading Basis Set <=

    Name: AUG-CC-PVTZ
    Role: ORBITAL
    Keyword: BASIS
    atoms 1-6         entry C          line   235 file /home/xy3866/psi4conda/share/psi4/basis/aug-cc-pvtz.gbs 
    atoms 7-12, 14-15 entry H          line    36 file /home/xy3866/psi4conda/share/psi4/basis/aug-cc-pvtz.gbs 
    atoms 13          entry S          line   902 file /home/xy3866/psi4conda/share/psi4/basis/aug-cc-pvtz.gbs 


         ---------------------------------------------------------
                                   SCF
               by Justin Turney, Rob Parrish, Andy Simmonett
                          and Daniel G. A. Smith
                              RHF Reference
                        4 Threads,  30517 MiB Core
         ---------------------------------------------------------

  ==> Geometry <==

    Molecular point group: c1
    Full point group: C2v

    Geometry (in Angstrom), charge = 0, multiplicity = 1:

       Center              X                  Y                   Z               Mass       
    ------------   -----------------  -----------------  -----------------  -----------------
      Gh(C)           0.000000000000    -1.393658000000     1.065817184865    12.000000000000
      Gh(C)           1.207737000000    -0.696816000000     1.064592184865    12.000000000000
      Gh(C)           1.207737000000     0.696816000000     1.064592184865    12.000000000000
      Gh(C)           0.000000000000     1.393658000000     1.065817184865    12.000000000000
      Gh(C)          -1.207737000000     0.696816000000     1.064592184865    12.000000000000
      Gh(C)          -1.207737000000    -0.696816000000     1.064592184865    12.000000000000
      Gh(H)           0.000000000000    -2.475320000000     1.071091184865     1.007825032230
      Gh(H)           2.144314000000    -1.237314000000     1.063693184865     1.007825032230
      Gh(H)           2.144314000000     1.237314000000     1.063693184865     1.007825032230
      Gh(H)           0.000000000000     2.475320000000     1.071091184865     1.007825032230
      Gh(H)          -2.144314000000     1.237314000000     1.063693184865     1.007825032230
      Gh(H)          -2.144314000000    -1.237314000000     1.063693184865     1.007825032230
         S            0.000000000000     0.000000000000    -2.501310215135    31.972071174400
         H            0.000000000000     0.954437000000    -1.565242215135     1.007825032230
         H            0.000000000000    -0.954437000000    -1.565242215135     1.007825032230

  Running in c1 symmetry.

  Rotational constants: A =      0.09427  B =      0.04412  C =      0.04392 [cm^-1]
  Rotational constants: A =   2826.03195  B =   1322.76838  C =   1316.80907 [MHz]
  Nuclear repulsion =   12.944044801570232

  Charge       = 0
  Multiplicity = 1
  Electrons    = 18
  Nalpha       = 9
  Nbeta        = 9

  ==> Algorithm <==

  SCF Algorithm Type is DF.
  DIIS enabled.
  MOM disabled.
  Fractional occupation disabled.
  Guess Type is SAD.
  Energy threshold   = 1.00e-08
  Density threshold  = 1.00e-08
  Integral threshold = 0.00e+00

  ==> Primary Basis <==

  Basis Set: AUG-CC-PVTZ
    Blend: AUG-CC-PVTZ
    Number of shells: 172
    Number of basis function: 510
    Number of Cartesian functions: 589
    Spherical Harmonics?: true
    Max angular momentum: 3

   => Loading Basis Set <=

    Name: (AUG-CC-PVTZ AUX)
    Role: JKFIT
    Keyword: DF_BASIS_SCF
    atoms 1-6         entry C          line   162 file /home/xy3866/psi4conda/share/psi4/basis/aug-cc-pvtz-jkfit.gbs 
    atoms 7-12, 14-15 entry H          line    70 file /home/xy3866/psi4conda/share/psi4/basis/aug-cc-pvtz-jkfit.gbs 
    atoms 13          entry S          line   730 file /home/xy3866/psi4conda/share/psi4/basis/aug-cc-pvtz-jkfit.gbs 

  ==> Pre-Iterations <==

   -------------------------------------------------------
    Irrep   Nso     Nmo     Nalpha   Nbeta   Ndocc  Nsocc
   -------------------------------------------------------
     A        510     510       0       0       0       0
   -------------------------------------------------------
    Total     510     510       9       9       9       0
   -------------------------------------------------------

  ==> Integral Setup <==

  ==> DiskDFJK: Density-Fitted J/K Matrices <==

    J tasked:                  Yes
    K tasked:                  Yes
    wK tasked:                  No
    OpenMP threads:              4
    Integrals threads:           4
    Memory [MiB]:            22888
    Algorithm:                Core
    Integral Cache:           LOAD
    Schwarz Cutoff:          1E-12
    Fitting Condition:       1E-10

   => Auxiliary Basis Set <=

  Basis Set: (AUG-CC-PVTZ AUX)
    Blend: AUG-CC-PVTZ-JKFIT
    Number of shells: 334
    Number of basis function: 1138
    Number of Cartesian functions: 1406
    Spherical Harmonics?: true
    Max angular momentum: 4

  Minimum eigenvalue in the overlap matrix is 2.6377923651E-07.
  Using Symmetric Orthogonalization.

  SCF Guess: Superposition of Atomic Densities via on-the-fly atomic UHF.

  ==> Iterations <==

                           Total Energy        Delta E     RMS |[F,P]|

   @DF-RHF iter SAD:  -398.42061468561400   -3.98421e+02   0.00000e+00 
   @DF-RHF iter   1:  -398.67949232285133   -2.58878e-01   4.21600e-04 DIIS
   @DF-RHF iter   2:  -398.70927483227837   -2.97825e-02   1.59301e-04 DIIS
   @DF-RHF iter   3:  -398.71300738902761   -3.73256e-03   3.90880e-05 DIIS
   @DF-RHF iter   4:  -398.71371102627523   -7.03637e-04   7.73383e-06 DIIS
   @DF-RHF iter   5:  -398.71374089922347   -2.98729e-05   1.14547e-06 DIIS
   @DF-RHF iter   6:  -398.71374148035682   -5.81133e-07   2.92460e-07 DIIS
   @DF-RHF iter   7:  -398.71374152065317   -4.02964e-08   7.38768e-08 DIIS
   @DF-RHF iter   8:  -398.71374152322448   -2.57131e-09   1.31188e-08 DIIS
   @DF-RHF iter   9:  -398.71374152329355   -6.90648e-11   2.54168e-09 DIIS
  Energy and wave function converged.


  ==> Post-Iterations <==

    Orbital Energies [Eh]
    ---------------------

    Doubly Occupied:                                                      

       1A    -91.967000     2A     -8.969042     3A     -6.650313  
       4A     -6.649543     5A     -6.648242     6A     -0.982614  
       7A     -0.587470     8A     -0.503585     9A     -0.385509  

    Virtual:                                                              

      10A      0.016661    11A      0.029806    12A      0.031683  
      13A      0.045413    14A      0.047343    15A      0.047671  
      16A      0.059530    17A      0.064921    18A      0.070388  
      19A      0.088524    20A      0.089972    21A      0.091533  
      22A      0.101474    23A      0.104374    24A      0.116782  
      25A      0.120482    26A      0.120930    27A      0.123604  
      28A      0.124070    29A      0.125570    30A      0.126929  
      31A      0.144374    32A      0.148419    33A      0.152795  
      34A      0.156918    35A      0.157004    36A      0.160853  
      37A      0.166135    38A      0.167631    39A      0.171304  
      40A      0.179762    41A      0.191770    42A      0.208437  
      43A      0.216161    44A      0.217737    45A      0.225304  
      46A      0.232497    47A      0.243931    48A      0.255735  
      49A      0.268179    50A      0.273818    51A      0.282918  
      52A      0.296540    53A      0.298697    54A      0.303311  
      55A      0.315536    56A      0.315594    57A      0.315927  
      58A      0.324476    59A      0.325101    60A      0.333589  
      61A      0.334016    62A      0.347984    63A      0.352168  
      64A      0.359360    65A      0.360216    66A      0.360458  
      67A      0.364229    68A      0.376154    69A      0.378842  
      70A      0.383777    71A      0.388663    72A      0.396970  
      73A      0.402139    74A      0.402409    75A      0.423635  
      76A      0.423705    77A      0.425352    78A      0.433355  
      79A      0.439021    80A      0.439277    81A      0.455676  
      82A      0.463490    83A      0.466177    84A      0.482022  
      85A      0.489261    86A      0.491647    87A      0.504122  
      88A      0.507137    89A      0.514567    90A      0.516927  
      91A      0.529675    92A      0.541565    93A      0.543615  
      94A      0.548670    95A      0.556033    96A      0.561393  
      97A      0.579904    98A      0.583174    99A      0.587251  
     100A      0.589663   101A      0.616150   102A      0.616570  
     103A      0.620597   104A      0.627384   105A      0.628294  
     106A      0.635856   107A      0.652273   108A      0.658057  
     109A      0.660237   110A      0.666871   111A      0.668456  
     112A      0.674881   113A      0.677033   114A      0.688524  
     115A      0.698188   116A      0.700034   117A      0.703006  
     118A      0.707190   119A      0.710317   120A      0.714910  
     121A      0.720696   122A      0.729781   123A      0.741660  
     124A      0.748786   125A      0.756061   126A      0.764072  
     127A      0.766266   128A      0.788810   129A      0.788913  
     130A      0.797611   131A      0.801018   132A      0.817098  
     133A      0.824366   134A      0.824604   135A      0.847438  
     136A      0.866154   137A      0.871932   138A      0.873145  
     139A      0.890058   140A      0.892648   141A      0.898020  
     142A      0.904112   143A      0.922300   144A      0.933998  
     145A      0.937043   146A      0.971089   147A      0.977777  
     148A      0.981174   149A      1.012478   150A      1.016420  
     151A      1.021120   152A      1.031598   153A      1.033343  
     154A      1.039553   155A      1.040238   156A      1.058841  
     157A      1.068616   158A      1.070804   159A      1.074615  
     160A      1.085779   161A      1.088622   162A      1.115187  
     163A      1.119492   164A      1.119759   165A      1.125946  
     166A      1.128249   167A      1.153071   168A      1.153307  
     169A      1.160521   170A      1.168197   171A      1.178627  
     172A      1.186086   173A      1.193632   174A      1.195614  
     175A      1.209280   176A      1.210166   177A      1.216353  
     178A      1.230646   179A      1.239613   180A      1.247075  
     181A      1.252871   182A      1.261537   183A      1.270048  
     184A      1.275504   185A      1.279049   186A      1.279279  
     187A      1.302796   188A      1.303694   189A      1.303890  
     190A      1.311196   191A      1.313174   192A      1.313468  
     193A      1.316255   194A      1.322236   195A      1.331317  
     196A      1.344956   197A      1.363954   198A      1.376214  
     199A      1.379215   200A      1.379716   201A      1.391236  
     202A      1.401492   203A      1.409168   204A      1.426029  
     205A      1.426235   206A      1.453315   207A      1.466246  
     208A      1.485645   209A      1.485960   210A      1.507416  
     211A      1.529114   212A      1.529193   213A      1.546107  
     214A      1.549897   215A      1.551344   216A      1.557413  
     217A      1.559371   218A      1.560766   219A      1.575434  
     220A      1.583591   221A      1.596222   222A      1.598458  
     223A      1.600424   224A      1.616652   225A      1.629183  
     226A      1.639415   227A      1.645734   228A      1.666140  
     229A      1.682955   230A      1.686436   231A      1.693151  
     232A      1.696488   233A      1.696716   234A      1.702595  
     235A      1.746985   236A      1.756793   237A      1.764426  
     238A      1.811884   239A      1.821899   240A      1.836425  
     241A      1.853662   242A      1.860331   243A      1.889578  
     244A      1.892551   245A      1.892780   246A      1.900745  
     247A      1.910649   248A      1.913840   249A      1.920884  
     250A      1.963283   251A      1.984181   252A      2.004902  
     253A      2.022450   254A      2.022600   255A      2.030329  
     256A      2.075696   257A      2.100391   258A      2.106003  
     259A      2.125124   260A      2.150599   261A      2.164329  
     262A      2.168892   263A      2.175449   264A      2.176964  
     265A      2.177812   266A      2.187652   267A      2.213811  
     268A      2.221457   269A      2.221460   270A      2.245060  
     271A      2.275347   272A      2.275655   273A      2.311317  
     274A      2.312149   275A      2.324109   276A      2.324458  
     277A      2.337150   278A      2.338267   279A      2.345312  
     280A      2.371194   281A      2.373170   282A      2.380083  
     283A      2.391351   284A      2.404269   285A      2.409904  
     286A      2.413608   287A      2.419186   288A      2.445667  
     289A      2.492839   290A      2.495279   291A      2.502158  
     292A      2.509054   293A      2.519264   294A      2.524860  
     295A      2.524932   296A      2.533632   297A      2.534637  
     298A      2.539565   299A      2.547365   300A      2.550990  
     301A      2.555350   302A      2.568064   303A      2.610491  
     304A      2.611670   305A      2.665595   306A      2.674124  
     307A      2.707144   308A      2.735394   309A      2.767020  
     310A      2.768970   311A      2.797939   312A      2.819807  
     313A      2.837188   314A      2.839916   315A      2.877460  
     316A      2.881867   317A      2.885916   318A      2.909830  
     319A      2.923568   320A      3.011311   321A      3.037413  
     322A      3.092888   323A      3.130155   324A      3.134044  
     325A      3.159219   326A      3.283536   327A      3.291225  
     328A      3.351465   329A      3.486478   330A      3.491569  
     331A      3.579469   332A      3.633915   333A      3.768372  
     334A      3.780871   335A      3.825439   336A      3.866207  
     337A      3.919959   338A      3.930283   339A      3.939149  
     340A      3.993618   341A      4.005084   342A      4.006923  
     343A      4.019294   344A      4.059388   345A      4.071123  
     346A      4.078860   347A      4.084813   348A      4.107375  
     349A      4.128176   350A      4.133198   351A      4.148666  
     352A      4.151638   353A      4.151710   354A      4.155389  
     355A      4.160689   356A      4.190732   357A      4.214400  
     358A      4.228225   359A      4.236193   360A      4.259525  
     361A      4.265055   362A      4.278300   363A      4.291307  
     364A      4.293155   365A      4.306752   366A      4.346814  
     367A      4.356875   368A      4.384115   369A      4.389558  
     370A      4.427214   371A      4.433274   372A      4.445043  
     373A      4.456671   374A      4.465874   375A      4.471649  
     376A      4.480866   377A      4.526871   378A      4.559798  
     379A      4.562060   380A      4.563748   381A      4.569014  
     382A      4.581089   383A      4.592069   384A      4.593038  
     385A      4.606425   386A      4.609260   387A      4.625141  
     388A      4.647209   389A      4.658419   390A      4.695560  
     391A      4.713441   392A      4.738836   393A      4.741788  
     394A      4.761832   395A      4.804467   396A      4.804882  
     397A      4.835011   398A      4.872413   399A      4.875050  
     400A      4.887908   401A      4.889597   402A      4.968400  
     403A      4.977134   404A      4.985118   405A      5.000506  
     406A      5.001595   407A      5.049249   408A      5.054159  
     409A      5.059473   410A      5.103074   411A      5.109851  
     412A      5.118683   413A      5.126885   414A      5.151774  
     415A      5.172967   416A      5.173241   417A      5.192320  
     418A      5.213410   419A      5.217657   420A      5.220270  
     421A      5.225218   422A      5.271116   423A      5.298649  
     424A      5.405916   425A      5.413115   426A      5.446244  
     427A      5.454216   428A      5.455721   429A      5.499197  
     430A      5.499568   431A      5.511546   432A      5.521154  
     433A      5.621823   434A      5.624477   435A      5.631689  
     436A      5.662646   437A      5.688277   438A      5.689688  
     439A      5.729701   440A      5.730641   441A      5.733980  
     442A      5.742897   443A      5.792257   444A      5.793293  
     445A      5.795142   446A      5.807543   447A      5.846153  
     448A      5.856584   449A      5.928808   450A      5.961566  
     451A      5.969340   452A      5.998079   453A      6.005482  
     454A      6.128049   455A      6.128510   456A      6.165657  
     457A      6.188440   458A      6.194446   459A      6.197063  
     460A      6.206639   461A      6.433664   462A      6.436619  
     463A      6.461949   464A      6.502051   465A      6.516680  
     466A      6.702230   467A      6.787354   468A      6.832489  
     469A      6.883506   470A      6.894551   471A      7.063293  
     472A      7.068156   473A      7.072094   474A      7.119413  
     475A      7.154221   476A      7.155608   477A      7.187511  
     478A      7.392000   479A      7.479243   480A      7.508875  
     481A      7.576298   482A      7.656271   483A      7.667702  
     484A      7.784890   485A      7.887389   486A      8.009468  
     487A      8.179602   488A      8.189222   489A      8.198812  
     490A      8.205198   491A      8.324118   492A      8.329000  
     493A      8.962406   494A      8.968273   495A      9.359510  
     496A      9.397620   497A      9.529337   498A     10.041888  
     499A     10.044175   500A     10.979347   501A     11.031913  
     502A     11.336827   503A     11.395276   504A     11.402832  
     505A     49.678853   506A     49.695813   507A     53.097357  
     508A     55.549147   509A     56.099333   510A     56.639824  

    Final Occupation by Irrep:
              A 
    DOCC [     9 ]

  @DF-RHF Final Energy:  -398.71374152329355

   => Energetics <=

    Nuclear Repulsion Energy =             12.9440448015702323
    One-Electron Energy =                -576.6289369012467887
    Two-Electron Energy =                 164.9711505763829962
    Total Energy =                       -398.7137415232934927

Computation Completed


Properties will be evaluated at   0.000000,   0.000000,   0.000000 [a0]

Properties computed using the SCF density matrix

  Nuclear Dipole Moment: [e a0]
     X:     0.0000      Y:     0.0000      Z:   -81.5444

  Electronic Dipole Moment: [e a0]
     X:     0.0000      Y:     0.0000      Z:    81.9718

  Dipole Moment: [e a0]
     X:     0.0000      Y:     0.0000      Z:     0.4273     Total:     0.4273

  Dipole Moment: [D]
     X:     0.0000      Y:     0.0000      Z:     1.0862     Total:     1.0862


*** tstop() called on node51.bme.utexas.edu at Tue Sep 10 10:44:15 2019
Module time:
	user time   =      71.02 seconds =       1.18 minutes
	system time =       1.29 seconds =       0.02 minutes
	total time  =         20 seconds =       0.33 minutes
Total time:
	user time   =     290.97 seconds =       4.85 minutes
	system time =       5.40 seconds =       0.09 minutes
	total time  =         90 seconds =       1.50 minutes
  Constructing Basis Sets for SAPT...

   => Loading Basis Set <=

    Name: (AUG-CC-PVTZ AUX)
    Role: RIFIT
    Keyword: DF_BASIS_SAPT
    atoms 1-6         entry C          line   148 file /home/xy3866/psi4conda/share/psi4/basis/aug-cc-pvtz-ri.gbs 
    atoms 7-12, 14-15 entry H          line    30 file /home/xy3866/psi4conda/share/psi4/basis/aug-cc-pvtz-ri.gbs 
    atoms 13          entry S          line   666 file /home/xy3866/psi4conda/share/psi4/basis/aug-cc-pvtz-ri.gbs 


  //>>>>>>>>>>>>>>>>>>>>>>>>>>>>>>>>>>>//
  //               SAPT2+              //
  //<<<<<<<<<<<<<<<<<<<<<<<<<<<<<<<<<<<//


*** tstart() called on node51.bme.utexas.edu
*** at Tue Sep 10 10:44:15 2019

        SAPT2+  
    Ed Hohenstein
     6 June 2009

      Orbital Information
  --------------------------
    NSO        =       510
    NMO        =       510
    NRI        =      1151
    NOCC A     =        21
    NOCC B     =         9
    FOCC A     =         6
    FOCC B     =         5
    NVIR A     =       489
    NVIR B     =       501

    Estimated memory usage: 4967.8 MB

    Natural Orbital Cutoff:   1.000E-06
    Disp(T3) Truncation:            Yes
    CCD (vv|vv) Truncation:         Yes
    MBPT T2 Truncation:             Yes

    Monomer A: 140 virtual orbitals dropped
    Monomer B: 413 virtual orbitals dropped

    Elst10,r            =    -0.006344743411 [Eh]
    Exch10 (S^2)        =     0.012782984728 [Eh]
    Exch10              =     0.012815504414 [Eh]
    Ind20,r (A<-B)      =    -0.002122377272 [Eh]
    Ind20,r (B<-A)      =    -0.001851351912 [Eh]
    Ind20,r             =    -0.003973729184 [Eh]
    Exch-Ind20,r (A<-B) =     0.001447649325 [Eh]
    Exch-Ind20,r (B<-A) =     0.001684629669 [Eh]
    Exch-Ind20,r        =     0.003132278994 [Eh]
    Disp20              =    -0.012009154158 [Eh]
    Disp20 (NO)         =    -0.010972365570 [Eh]
    Exch-Disp20         =     0.001573534169 [Eh]
    Elst12,r            =     0.000258813056 [Eh]
    Exch11              =     0.000891644931 [Eh]
    Exch12              =    -0.000588888475 [Eh]
    Ind22               =    -0.000155107702 [Eh]
    Disp21              =     0.002586593130 [Eh]
    Disp22 (SDQ)        =     0.000680234570 [Eh]

    (i =   1 of   4)        134 seconds
    (i =   2 of   4)        260 seconds
    (i =   3 of   4)        383 seconds
    (i =   4 of   4)        516 seconds

    Disp220 (T)         =    -0.001238679046 [Eh]

    (i =   1 of  15)          5 seconds
    (i =   2 of  15)         11 seconds
    (i =   3 of  15)         16 seconds
    (i =   4 of  15)         22 seconds
    (i =   5 of  15)         28 seconds
    (i =   6 of  15)         33 seconds
    (i =   7 of  15)         39 seconds
    (i =   8 of  15)         45 seconds
    (i =   9 of  15)         51 seconds
    (i =  10 of  15)         56 seconds
    (i =  11 of  15)         62 seconds
    (i =  12 of  15)         68 seconds
    (i =  13 of  15)         72 seconds
    (i =  14 of  15)         77 seconds
    (i =  15 of  15)         82 seconds

    Disp202 (T)         =    -0.000871911488 [Eh]

    Disp22 (T)          =    -0.002110590535 [Eh]

    Est. Disp220 (T)    =    -0.001355722932 [Eh]
    Est. Disp202 (T)    =    -0.000954299181 [Eh]

    Est. Disp22 (T)     =    -0.002310022113 [Eh]

    SAPT Results 
  --------------------------------------------------------------------------------------------------------
    Electrostatics                 -6.08593035 [mEh]      -3.81897895 [kcal/mol]     -15.97860795 [kJ/mol]
      Elst10,r                     -6.34474341 [mEh]      -3.98138660 [kcal/mol]     -16.65812153 [kJ/mol]
      Elst12,r                      0.25881306 [mEh]       0.16240764 [kcal/mol]       0.67951359 [kJ/mol]

    Exchange                       13.11826087 [mEh]       8.23183298 [kcal/mol]      34.44198917 [kJ/mol]
      Exch10                       12.81550441 [mEh]       8.04185043 [kcal/mol]      33.64710220 [kJ/mol]
      Exch10(S^2)                  12.78298473 [mEh]       8.02144402 [kcal/mol]      33.56172178 [kJ/mol]
      Exch11(S^2)                   0.89164493 [mEh]       0.55951564 [kcal/mol]       2.34101345 [kJ/mol]
      Exch12(S^2)                  -0.58888848 [mEh]      -0.36953310 [kcal/mol]      -1.54612648 [kJ/mol]

    Induction                      -2.34203798 [mEh]      -1.46965102 [kcal/mol]      -6.14901988 [kJ/mol]
      Ind20,r                      -3.97372918 [mEh]      -2.49355271 [kcal/mol]     -10.43302454 [kJ/mol]
      Ind22                        -0.15510770 [mEh]      -0.09733155 [kcal/mol]      -0.40723522 [kJ/mol]
      Exch-Ind20,r                  3.13227899 [mEh]       1.96553474 [kcal/mol]       8.22379737 [kJ/mol]
      Exch-Ind22                    0.12226314 [mEh]       0.07672128 [kcal/mol]       0.32100182 [kJ/mol]
      delta HF,r (2)               -1.46774323 [mEh]      -0.92102278 [kcal/mol]      -3.85355932 [kJ/mol]

    Dispersion                     -9.47881440 [mEh]      -5.94804584 [kcal/mol]     -24.88662378 [kJ/mol]
      Disp20                      -12.00915416 [mEh]      -7.53585801 [kcal/mol]     -31.53002990 [kJ/mol]
      Disp21                        2.58659313 [mEh]       1.62311169 [kcal/mol]       6.79109933 [kJ/mol]
      Disp22 (SDQ)                  0.68023457 [mEh]       0.42685364 [kcal/mol]       1.78595562 [kJ/mol]
      Disp22 (T)                   -2.11059053 [mEh]      -1.32441556 [kcal/mol]      -5.54135469 [kJ/mol]
      Est. Disp22 (T)              -2.31002211 [mEh]      -1.44956076 [kcal/mol]      -6.06496222 [kJ/mol]
      Exch-Disp20                   1.57353417 [mEh]       0.98740760 [kcal/mol]       4.13131339 [kJ/mol]

  Total HF                          4.16156759 [mEh]       2.61142309 [kcal/mol]      10.92619419 [kJ/mol]
  Total SAPT0                      -6.27405240 [mEh]      -3.93702732 [kcal/mol]     -16.47252232 [kJ/mol]
  Total SAPT2                      -5.74532746 [mEh]      -3.60524741 [kcal/mol]     -15.08435516 [kJ/mol]
  Total SAPT2+                     -4.78852187 [mEh]      -3.00484284 [kcal/mol]     -12.57226243 [kJ/mol]

  Special recipe for scaled SAPT0 (see Manual):
    Electrostatics sSAPT0          -6.34474341 [mEh]      -3.98138660 [kcal/mol]     -16.65812153 [kJ/mol]
    Exchange sSAPT0                12.81550441 [mEh]       8.04185043 [kcal/mol]      33.64710220 [kJ/mol]
    Induction sSAPT0               -2.28522717 [mEh]      -1.43400170 [kcal/mol]      -5.99986310 [kJ/mol]
    Dispersion sSAPT0             -10.42358028 [mEh]      -6.54089538 [kcal/mol]     -27.36710626 [kJ/mol]
  Total sSAPT0                     -6.23804644 [mEh]      -3.91443324 [kcal/mol]     -16.37798868 [kJ/mol]
  --------------------------------------------------------------------------------------------------------

*** tstop() called on node51.bme.utexas.edu at Tue Sep 10 11:11:52 2019
Module time:
	user time   =    5543.15 seconds =      92.39 minutes
	system time =     126.46 seconds =       2.11 minutes
	total time  =       1657 seconds =      27.62 minutes
Total time:
	user time   =    5834.36 seconds =      97.24 minutes
	system time =     131.86 seconds =       2.20 minutes
	total time  =       1747 seconds =      29.12 minutes

    Psi4 stopped on: Tuesday, 10 September 2019 11:11AM
    Psi4 wall time for execution: 0:29:06.84

*** Psi4 exiting successfully. Buy a developer a beer!
