
    -----------------------------------------------------------------------
          Psi4: An Open-Source Ab Initio Electronic Structure Package
                               Psi4 1.3.2 release

                         Git: Rev {HEAD} ecbda83 


    R. M. Parrish, L. A. Burns, D. G. A. Smith, A. C. Simmonett,
    A. E. DePrince III, E. G. Hohenstein, U. Bozkaya, A. Yu. Sokolov,
    R. Di Remigio, R. M. Richard, J. F. Gonthier, A. M. James,
    H. R. McAlexander, A. Kumar, M. Saitow, X. Wang, B. P. Pritchard,
    P. Verma, H. F. Schaefer III, K. Patkowski, R. A. King, E. F. Valeev,
    F. A. Evangelista, J. M. Turney, T. D. Crawford, and C. D. Sherrill,
    J. Chem. Theory Comput. 13(7) pp 3185--3197 (2017).
    (doi: 10.1021/acs.jctc.7b00174)


                         Additional Contributions by
    P. Kraus, H. Kruse, M. H. Lechner, M. C. Schieber, R. A. Shaw,
    A. Alenaizan, R. Galvelis, Z. L. Glick, S. Lehtola, and J. P. Misiewicz

    -----------------------------------------------------------------------


    Psi4 started on: Tuesday, 10 September 2019 01:36PM

    Process ID: 103024
    Host:       node54.bme.utexas.edu
    PSIDATADIR: /home/xy3866/psi4conda/share/psi4
    Memory:     500.0 MiB
    Threads:    4
    
  ==> Input File <==

--------------------------------------------------------------------------
#psi4
#
memory 32 gb

molecule  {
0 1
  C        0.0000000    -1.3936580     1.0640200
  C        1.2077370    -0.6968160     1.0627950
  C        1.2077370     0.6968160     1.0627950
  C        0.0000000     1.3936580     1.0640200
  C       -1.2077370     0.6968160     1.0627950
  C       -1.2077370    -0.6968160     1.0627950
  H        0.0000000    -2.4753200     1.0692940
  H        2.1443140    -1.2373140     1.0618960
  H        2.1443140     1.2373140     1.0618960
  H        0.0000000     2.4753200     1.0692940
  H       -2.1443140     1.2373140     1.0618960
  H       -2.1443140    -1.2373140     1.0618960
--
0 1
  S        0.0000000     0.0000000    -1.9400057
  H        0.0000000     0.9544370    -1.0039377
  H        0.0000000    -0.9544370    -1.0039377
units angstrom
no_reorient  #important for SAPT in psi4, default
symmetry c1  #important for SAPT in psi4, default
}

set {
basis aug-cc-pVTZ
scf_type DF
freeze_core True
}
energy('sapt2+')
--------------------------------------------------------------------------

  Memory set to  29.802 GiB by Python driver.

  //>>>>>>>>>>>>>>>>>>>>>>>>>>>>>>>>>>>//
  //              Dimer HF             //
  //<<<<<<<<<<<<<<<<<<<<<<<<<<<<<<<<<<<//


*** tstart() called on node54.bme.utexas.edu
*** at Tue Sep 10 13:36:40 2019

   => Loading Basis Set <=

    Name: AUG-CC-PVTZ
    Role: ORBITAL
    Keyword: BASIS
    atoms 1-6         entry C          line   235 file /home/xy3866/psi4conda/share/psi4/basis/aug-cc-pvtz.gbs 
    atoms 7-12, 14-15 entry H          line    36 file /home/xy3866/psi4conda/share/psi4/basis/aug-cc-pvtz.gbs 
    atoms 13          entry S          line   902 file /home/xy3866/psi4conda/share/psi4/basis/aug-cc-pvtz.gbs 


         ---------------------------------------------------------
                                   SCF
               by Justin Turney, Rob Parrish, Andy Simmonett
                          and Daniel G. A. Smith
                              RHF Reference
                        4 Threads,  30517 MiB Core
         ---------------------------------------------------------

  ==> Geometry <==

    Molecular point group: c1
    Full point group: C2v

    Geometry (in Angstrom), charge = 0, multiplicity = 1:

       Center              X                  Y                   Z               Mass       
    ------------   -----------------  -----------------  -----------------  -----------------
         C            0.000000000000    -1.393658000000     0.894990213499    12.000000000000
         C            1.207737000000    -0.696816000000     0.893765213499    12.000000000000
         C            1.207737000000     0.696816000000     0.893765213499    12.000000000000
         C            0.000000000000     1.393658000000     0.894990213499    12.000000000000
         C           -1.207737000000     0.696816000000     0.893765213499    12.000000000000
         C           -1.207737000000    -0.696816000000     0.893765213499    12.000000000000
         H            0.000000000000    -2.475320000000     0.900264213499     1.007825032230
         H            2.144314000000    -1.237314000000     0.892866213499     1.007825032230
         H            2.144314000000     1.237314000000     0.892866213499     1.007825032230
         H            0.000000000000     2.475320000000     0.900264213499     1.007825032230
         H           -2.144314000000     1.237314000000     0.892866213499     1.007825032230
         H           -2.144314000000    -1.237314000000     0.892866213499     1.007825032230
         S            0.000000000000     0.000000000000    -2.109035486501    31.972071174400
         H            0.000000000000     0.954437000000    -1.172967486501     1.007825032230
         H            0.000000000000    -0.954437000000    -1.172967486501     1.007825032230

  Running in c1 symmetry.

  Rotational constants: A =      0.09427  B =      0.05696  C =      0.05663 [cm^-1]
  Rotational constants: A =   2826.03195  B =   1707.64301  C =   1697.72433 [MHz]
  Nuclear repulsion =  338.337415086491092

  Charge       = 0
  Multiplicity = 1
  Electrons    = 60
  Nalpha       = 30
  Nbeta        = 30

  ==> Algorithm <==

  SCF Algorithm Type is DF.
  DIIS enabled.
  MOM disabled.
  Fractional occupation disabled.
  Guess Type is SAD.
  Energy threshold   = 1.00e-08
  Density threshold  = 1.00e-08
  Integral threshold = 0.00e+00

  ==> Primary Basis <==

  Basis Set: AUG-CC-PVTZ
    Blend: AUG-CC-PVTZ
    Number of shells: 172
    Number of basis function: 510
    Number of Cartesian functions: 589
    Spherical Harmonics?: true
    Max angular momentum: 3

   => Loading Basis Set <=

    Name: (AUG-CC-PVTZ AUX)
    Role: JKFIT
    Keyword: DF_BASIS_SCF
    atoms 1-6         entry C          line   162 file /home/xy3866/psi4conda/share/psi4/basis/aug-cc-pvtz-jkfit.gbs 
    atoms 7-12, 14-15 entry H          line    70 file /home/xy3866/psi4conda/share/psi4/basis/aug-cc-pvtz-jkfit.gbs 
    atoms 13          entry S          line   730 file /home/xy3866/psi4conda/share/psi4/basis/aug-cc-pvtz-jkfit.gbs 

  ==> Pre-Iterations <==

   -------------------------------------------------------
    Irrep   Nso     Nmo     Nalpha   Nbeta   Ndocc  Nsocc
   -------------------------------------------------------
     A        510     510       0       0       0       0
   -------------------------------------------------------
    Total     510     510      30      30      30       0
   -------------------------------------------------------

  ==> Integral Setup <==

  ==> DiskDFJK: Density-Fitted J/K Matrices <==

    J tasked:                  Yes
    K tasked:                  Yes
    wK tasked:                  No
    OpenMP threads:              4
    Integrals threads:           4
    Memory [MiB]:            22888
    Algorithm:                Core
    Integral Cache:           SAVE
    Schwarz Cutoff:          1E-12
    Fitting Condition:       1E-10

   => Auxiliary Basis Set <=

  Basis Set: (AUG-CC-PVTZ AUX)
    Blend: AUG-CC-PVTZ-JKFIT
    Number of shells: 334
    Number of basis function: 1138
    Number of Cartesian functions: 1406
    Spherical Harmonics?: true
    Max angular momentum: 4

  Minimum eigenvalue in the overlap matrix is 2.6415070961E-07.
  Using Symmetric Orthogonalization.

  SCF Guess: Superposition of Atomic Densities via on-the-fly atomic UHF.

  ==> Iterations <==

                           Total Energy        Delta E     RMS |[F,P]|

   @DF-RHF iter SAD:  -629.08678977601130   -6.29087e+02   0.00000e+00 
   @DF-RHF iter   1:  -629.26137017233486   -1.74580e-01   1.12266e-03 DIIS
   @DF-RHF iter   2:  -629.42510176815836   -1.63732e-01   5.24118e-04 DIIS
   @DF-RHF iter   3:  -629.46081116386051   -3.57094e-02   1.08517e-04 DIIS
   @DF-RHF iter   4:  -629.46333105945325   -2.51990e-03   2.72233e-05 DIIS
   @DF-RHF iter   5:  -629.46351250019836   -1.81441e-04   6.99434e-06 DIIS
   @DF-RHF iter   6:  -629.46353030227715   -1.78021e-05   1.95771e-06 DIIS
   @DF-RHF iter   7:  -629.46353186152362   -1.55925e-06   5.39254e-07 DIIS
   @DF-RHF iter   8:  -629.46353197407450   -1.12551e-07   1.41282e-07 DIIS
   @DF-RHF iter   9:  -629.46353198008467   -6.01017e-09   3.51649e-08 DIIS
   @DF-RHF iter  10:  -629.46353198047268   -3.88013e-10   1.24396e-08 DIIS
   @DF-RHF iter  11:  -629.46353198050292   -3.02407e-11   3.00179e-09 DIIS
  Energy and wave function converged.


  ==> Post-Iterations <==

    Orbital Energies [Eh]
    ---------------------

    Doubly Occupied:                                                      

       1A    -91.924552     2A    -11.248896     3A    -11.248539  
       4A    -11.248018     5A    -11.247177     6A    -11.246768  
       7A    -11.246346     8A     -8.928287     9A     -6.609634  
      10A     -6.609064    11A     -6.607787    12A     -1.168021  
      13A     -1.031823    14A     -1.028830    15A     -0.954599  
      16A     -0.838315    17A     -0.837745    18A     -0.723459  
      19A     -0.656984    20A     -0.632723    21A     -0.603156  
      22A     -0.600969    23A     -0.569382    24A     -0.546027  
      25A     -0.508183    26A     -0.507613    27A     -0.439938  
      28A     -0.378787    29A     -0.346750    30A     -0.328429  

    Virtual:                                                              

      31A      0.026797    32A      0.032002    33A      0.033701  
      34A      0.046046    35A      0.046276    36A      0.055708  
      37A      0.061666    38A      0.062992    39A      0.084689  
      40A      0.090533    41A      0.092574    42A      0.103239  
      43A      0.110265    44A      0.116307    45A      0.118339  
      46A      0.122280    47A      0.123645    48A      0.123880  
      49A      0.123890    50A      0.127989    51A      0.134104  
      52A      0.147904    53A      0.148282    54A      0.150599  
      55A      0.152404    56A      0.154685    57A      0.155400  
      58A      0.158492    59A      0.171132    60A      0.175914  
      61A      0.176952    62A      0.207289    63A      0.225640  
      64A      0.228936    65A      0.237153    66A      0.241867  
      67A      0.246192    68A      0.256046    69A      0.266306  
      70A      0.274391    71A      0.278167    72A      0.292312  
      73A      0.296019    74A      0.299396    75A      0.303675  
      76A      0.311721    77A      0.313108    78A      0.324385  
      79A      0.327453    80A      0.332508    81A      0.340434  
      82A      0.342604    83A      0.344293    84A      0.344981  
      85A      0.350797    86A      0.362905    87A      0.363989  
      88A      0.368398    89A      0.368503    90A      0.375230  
      91A      0.376526    92A      0.380807    93A      0.394577  
      94A      0.409320    95A      0.422666    96A      0.434277  
      97A      0.438553    98A      0.447442    99A      0.454094  
     100A      0.454835   101A      0.456880   102A      0.475184  
     103A      0.476302   104A      0.477140   105A      0.480227  
     106A      0.488639   107A      0.490538   108A      0.492725  
     109A      0.496084   110A      0.503576   111A      0.512435  
     112A      0.514205   113A      0.522850   114A      0.524244  
     115A      0.525044   116A      0.526822   117A      0.527232  
     118A      0.537965   119A      0.548200   120A      0.554317  
     121A      0.574685   122A      0.575538   123A      0.577479  
     124A      0.602386   125A      0.618632   126A      0.626860  
     127A      0.632165   128A      0.633050   129A      0.647015  
     130A      0.647040   131A      0.655012   132A      0.655224  
     133A      0.660666   134A      0.668991   135A      0.686364  
     136A      0.697530   137A      0.702897   138A      0.713742  
     139A      0.719452   140A      0.721448   141A      0.722083  
     142A      0.734180   143A      0.750288   144A      0.761390  
     145A      0.773075   146A      0.780456   147A      0.786404  
     148A      0.795094   149A      0.802792   150A      0.809810  
     151A      0.816005   152A      0.824285   153A      0.827444  
     154A      0.836481   155A      0.843700   156A      0.845005  
     157A      0.856504   158A      0.858073   159A      0.874037  
     160A      0.877585   161A      0.878616   162A      0.882818  
     163A      0.890005   164A      0.892986   165A      0.894916  
     166A      0.896672   167A      0.906462   168A      0.922207  
     169A      0.937498   170A      0.944284   171A      0.955708  
     172A      0.962041   173A      0.975106   174A      0.978862  
     175A      0.979952   176A      1.004495   177A      1.011069  
     178A      1.048413   179A      1.055395   180A      1.068621  
     181A      1.070821   182A      1.071923   183A      1.077983  
     184A      1.081458   185A      1.084169   186A      1.090263  
     187A      1.114935   188A      1.116475   189A      1.121540  
     190A      1.123988   191A      1.131018   192A      1.131023  
     193A      1.131347   194A      1.139231   195A      1.147497  
     196A      1.153867   197A      1.167091   198A      1.173074  
     199A      1.177561   200A      1.177609   201A      1.186426  
     202A      1.200340   203A      1.208239   204A      1.224026  
     205A      1.224050   206A      1.230015   207A      1.235320  
     208A      1.237699   209A      1.245093   210A      1.249131  
     211A      1.256758   212A      1.267866   213A      1.294128  
     214A      1.300919   215A      1.303518   216A      1.304229  
     217A      1.312929   218A      1.324945   219A      1.350858  
     220A      1.353749   221A      1.355926   222A      1.363342  
     223A      1.368846   224A      1.369129   225A      1.378185  
     226A      1.401871   227A      1.406802   228A      1.427947  
     229A      1.440852   230A      1.443208   231A      1.462507  
     232A      1.469110   233A      1.481238   234A      1.487768  
     235A      1.501348   236A      1.501563   237A      1.534297  
     238A      1.535525   239A      1.539533   240A      1.547849  
     241A      1.552771   242A      1.599643   243A      1.630687  
     244A      1.636021   245A      1.643447   246A      1.646282  
     247A      1.661809   248A      1.667857   249A      1.669115  
     250A      1.692198   251A      1.706736   252A      1.727758  
     253A      1.728862   254A      1.732356   255A      1.748995  
     256A      1.756258   257A      1.772829   258A      1.774078  
     259A      1.787711   260A      1.796954   261A      1.803161  
     262A      1.815263   263A      1.828639   264A      1.833281  
     265A      1.855170   266A      1.863042   267A      1.872672  
     268A      1.874345   269A      1.877987   270A      1.893424  
     271A      1.899767   272A      1.930811   273A      1.937792  
     274A      1.945128   275A      1.951975   276A      1.992927  
     277A      2.003789   278A      2.010551   279A      2.019480  
     280A      2.034293   281A      2.039098   282A      2.041821  
     283A      2.052158   284A      2.058140   285A      2.077386  
     286A      2.096235   287A      2.102812   288A      2.113670  
     289A      2.125237   290A      2.134459   291A      2.142164  
     292A      2.145688   293A      2.150907   294A      2.176560  
     295A      2.214877   296A      2.262542   297A      2.269797  
     298A      2.273636   299A      2.284525   300A      2.295132  
     301A      2.315594   302A      2.333987   303A      2.337308  
     304A      2.360146   305A      2.369713   306A      2.376589  
     307A      2.412326   308A      2.425046   309A      2.436902  
     310A      2.450067   311A      2.472332   312A      2.474210  
     313A      2.480502   314A      2.516595   315A      2.519579  
     316A      2.536534   317A      2.561351   318A      2.561669  
     319A      2.567005   320A      2.594170   321A      2.612318  
     322A      2.619106   323A      2.620155   324A      2.622477  
     325A      2.736995   326A      2.737843   327A      2.753078  
     328A      2.776191   329A      2.777819   330A      2.796629  
     331A      2.831247   332A      2.849648   333A      2.856441  
     334A      2.862026   335A      2.908389   336A      3.012280  
     337A      3.070069   338A      3.133490   339A      3.140923  
     340A      3.190591   341A      3.213278   342A      3.223484  
     343A      3.283450   344A      3.299322   345A      3.346504  
     346A      3.374228   347A      3.377200   348A      3.377934  
     349A      3.387118   350A      3.395358   351A      3.425110  
     352A      3.433026   353A      3.436164   354A      3.458981  
     355A      3.461312   356A      3.467962   357A      3.476069  
     358A      3.478532   359A      3.541300   360A      3.560210  
     361A      3.565124   362A      3.607053   363A      3.629496  
     364A      3.642106   365A      3.653553   366A      3.660693  
     367A      3.662080   368A      3.665616   369A      3.685835  
     370A      3.709363   371A      3.719499   372A      3.720446  
     373A      3.757825   374A      3.777981   375A      3.812553  
     376A      3.813853   377A      3.823509   378A      3.829516  
     379A      3.846180   380A      3.863699   381A      3.881753  
     382A      3.894368   383A      3.913909   384A      3.915166  
     385A      3.934430   386A      3.936497   387A      3.965314  
     388A      3.986307   389A      3.987649   390A      3.993470  
     391A      4.018389   392A      4.024965   393A      4.042938  
     394A      4.043233   395A      4.043925   396A      4.066280  
     397A      4.080301   398A      4.107920   399A      4.111950  
     400A      4.136382   401A      4.154581   402A      4.160055  
     403A      4.160583   404A      4.172025   405A      4.175733  
     406A      4.177773   407A      4.226950   408A      4.227489  
     409A      4.264937   410A      4.279430   411A      4.300175  
     412A      4.310835   413A      4.329270   414A      4.352968  
     415A      4.368880   416A      4.373323   417A      4.386086  
     418A      4.392932   419A      4.421875   420A      4.430746  
     421A      4.432231   422A      4.463588   423A      4.472085  
     424A      4.486525   425A      4.487952   426A      4.495302  
     427A      4.499399   428A      4.511618   429A      4.525711  
     430A      4.547547   431A      4.583265   432A      4.610257  
     433A      4.659103   434A      4.665618   435A      4.683743  
     436A      4.706663   437A      4.714758   438A      4.751783  
     439A      4.754731   440A      4.779253   441A      4.806724  
     442A      4.810860   443A      4.843371   444A      4.858500  
     445A      4.881663   446A      4.903528   447A      4.906798  
     448A      4.922055   449A      4.948785   450A      4.993420  
     451A      5.029746   452A      5.037627   453A      5.094146  
     454A      5.095793   455A      5.118156   456A      5.121904  
     457A      5.127486   458A      5.130206   459A      5.141482  
     460A      5.168487   461A      5.171854   462A      5.189001  
     463A      5.203968   464A      5.205136   465A      5.239377  
     466A      5.241359   467A      5.257810   468A      5.288652  
     469A      5.312229   470A      5.335550   471A      5.351088  
     472A      5.363543   473A      5.407948   474A      5.426990  
     475A      5.440978   476A      5.452630   477A      5.459180  
     478A      5.472213   479A      5.553934   480A      5.627506  
     481A      5.763936   482A      5.764403   483A      5.794752  
     484A      5.800770   485A      5.839572   486A      5.852335  
     487A      5.899551   488A      5.984004   489A      6.193331  
     490A      6.222268   491A      6.265603   492A      6.268425  
     493A      6.308732   494A      6.376736   495A      6.395434  
     496A      6.408043   497A      6.651043   498A      6.694831  
     499A      6.878372   500A      6.880916   501A      7.018259  
     502A      7.224669   503A      7.434033   504A      8.665092  
     505A     16.100580   506A     16.198366   507A     19.425918  
     508A     19.570648   509A     19.617679   510A     20.051884  

    Final Occupation by Irrep:
              A 
    DOCC [    30 ]

  @DF-RHF Final Energy:  -629.46353198050292

   => Energetics <=

    Nuclear Repulsion Energy =            338.3374150864910916
    One-Electron Energy =               -1533.8682863891358465
    Two-Electron Energy =                 566.0673393221418337
    Total Energy =                       -629.4635319805029212

Computation Completed


Properties will be evaluated at   0.000000,   0.000000,   0.000000 [a0]

Properties computed using the SCF density matrix

  Nuclear Dipole Moment: [e a0]
     X:     0.0000      Y:    -0.0000      Z:     2.7812

  Electronic Dipole Moment: [e a0]
     X:     0.0000      Y:    -0.0000      Z:    -1.9427

  Dipole Moment: [e a0]
     X:     0.0000      Y:    -0.0000      Z:     0.8385     Total:     0.8385

  Dipole Moment: [D]
     X:     0.0000      Y:    -0.0000      Z:     2.1313     Total:     2.1313


*** tstop() called on node54.bme.utexas.edu at Tue Sep 10 13:37:16 2019
Module time:
	user time   =     129.73 seconds =       2.16 minutes
	system time =       2.27 seconds =       0.04 minutes
	total time  =         36 seconds =       0.60 minutes
Total time:
	user time   =     129.73 seconds =       2.16 minutes
	system time =       2.27 seconds =       0.04 minutes
	total time  =         36 seconds =       0.60 minutes

  //>>>>>>>>>>>>>>>>>>>>>>>>>>>>>>>>>>>//
  //            Monomer A HF           //
  //<<<<<<<<<<<<<<<<<<<<<<<<<<<<<<<<<<<//


*** tstart() called on node54.bme.utexas.edu
*** at Tue Sep 10 13:37:16 2019

   => Loading Basis Set <=

    Name: AUG-CC-PVTZ
    Role: ORBITAL
    Keyword: BASIS
    atoms 1-6         entry C          line   235 file /home/xy3866/psi4conda/share/psi4/basis/aug-cc-pvtz.gbs 
    atoms 7-12, 14-15 entry H          line    36 file /home/xy3866/psi4conda/share/psi4/basis/aug-cc-pvtz.gbs 
    atoms 13          entry S          line   902 file /home/xy3866/psi4conda/share/psi4/basis/aug-cc-pvtz.gbs 


         ---------------------------------------------------------
                                   SCF
               by Justin Turney, Rob Parrish, Andy Simmonett
                          and Daniel G. A. Smith
                              RHF Reference
                        4 Threads,  30517 MiB Core
         ---------------------------------------------------------

  ==> Geometry <==

    Molecular point group: c1
    Full point group: C2v

    Geometry (in Angstrom), charge = 0, multiplicity = 1:

       Center              X                  Y                   Z               Mass       
    ------------   -----------------  -----------------  -----------------  -----------------
         C            0.000000000000    -1.393658000000     0.894990213499    12.000000000000
         C            1.207737000000    -0.696816000000     0.893765213499    12.000000000000
         C            1.207737000000     0.696816000000     0.893765213499    12.000000000000
         C            0.000000000000     1.393658000000     0.894990213499    12.000000000000
         C           -1.207737000000     0.696816000000     0.893765213499    12.000000000000
         C           -1.207737000000    -0.696816000000     0.893765213499    12.000000000000
         H            0.000000000000    -2.475320000000     0.900264213499     1.007825032230
         H            2.144314000000    -1.237314000000     0.892866213499     1.007825032230
         H            2.144314000000     1.237314000000     0.892866213499     1.007825032230
         H            0.000000000000     2.475320000000     0.900264213499     1.007825032230
         H           -2.144314000000     1.237314000000     0.892866213499     1.007825032230
         H           -2.144314000000    -1.237314000000     0.892866213499     1.007825032230
      Gh(S)           0.000000000000     0.000000000000    -2.109035486501    31.972071174400
      Gh(H)           0.000000000000     0.954437000000    -1.172967486501     1.007825032230
      Gh(H)           0.000000000000    -0.954437000000    -1.172967486501     1.007825032230

  Running in c1 symmetry.

  Rotational constants: A =      0.09427  B =      0.05696  C =      0.05663 [cm^-1]
  Rotational constants: A =   2826.03195  B =   1707.64301  C =   1697.72433 [MHz]
  Nuclear repulsion =  203.653891607934128

  Charge       = 0
  Multiplicity = 1
  Electrons    = 42
  Nalpha       = 21
  Nbeta        = 21

  ==> Algorithm <==

  SCF Algorithm Type is DF.
  DIIS enabled.
  MOM disabled.
  Fractional occupation disabled.
  Guess Type is SAD.
  Energy threshold   = 1.00e-08
  Density threshold  = 1.00e-08
  Integral threshold = 0.00e+00

  ==> Primary Basis <==

  Basis Set: AUG-CC-PVTZ
    Blend: AUG-CC-PVTZ
    Number of shells: 172
    Number of basis function: 510
    Number of Cartesian functions: 589
    Spherical Harmonics?: true
    Max angular momentum: 3

   => Loading Basis Set <=

    Name: (AUG-CC-PVTZ AUX)
    Role: JKFIT
    Keyword: DF_BASIS_SCF
    atoms 1-6         entry C          line   162 file /home/xy3866/psi4conda/share/psi4/basis/aug-cc-pvtz-jkfit.gbs 
    atoms 7-12, 14-15 entry H          line    70 file /home/xy3866/psi4conda/share/psi4/basis/aug-cc-pvtz-jkfit.gbs 
    atoms 13          entry S          line   730 file /home/xy3866/psi4conda/share/psi4/basis/aug-cc-pvtz-jkfit.gbs 

  ==> Pre-Iterations <==

   -------------------------------------------------------
    Irrep   Nso     Nmo     Nalpha   Nbeta   Ndocc  Nsocc
   -------------------------------------------------------
     A        510     510       0       0       0       0
   -------------------------------------------------------
    Total     510     510      21      21      21       0
   -------------------------------------------------------

  ==> Integral Setup <==

  ==> DiskDFJK: Density-Fitted J/K Matrices <==

    J tasked:                  Yes
    K tasked:                  Yes
    wK tasked:                  No
    OpenMP threads:              4
    Integrals threads:           4
    Memory [MiB]:            22888
    Algorithm:                Core
    Integral Cache:           LOAD
    Schwarz Cutoff:          1E-12
    Fitting Condition:       1E-10

   => Auxiliary Basis Set <=

  Basis Set: (AUG-CC-PVTZ AUX)
    Blend: AUG-CC-PVTZ-JKFIT
    Number of shells: 334
    Number of basis function: 1138
    Number of Cartesian functions: 1406
    Spherical Harmonics?: true
    Max angular momentum: 4

  Minimum eigenvalue in the overlap matrix is 2.6415070961E-07.
  Using Symmetric Orthogonalization.

  SCF Guess: Superposition of Atomic Densities via on-the-fly atomic UHF.

  ==> Iterations <==

                           Total Energy        Delta E     RMS |[F,P]|

   @DF-RHF iter SAD:  -230.19001699518489   -2.30190e+02   0.00000e+00 
   @DF-RHF iter   1:  -230.60101626601914   -4.10999e-01   1.07239e-03 DIIS
   @DF-RHF iter   2:  -230.74300887895737   -1.41993e-01   5.31880e-04 DIIS
   @DF-RHF iter   3:  -230.77991880675845   -3.69099e-02   8.50012e-05 DIIS
   @DF-RHF iter   4:  -230.78146721276329   -1.54841e-03   1.05102e-05 DIIS
   @DF-RHF iter   5:  -230.78149617587817   -2.89631e-05   1.91636e-06 DIIS
   @DF-RHF iter   6:  -230.78149720091727   -1.02504e-06   2.18777e-07 DIIS
   @DF-RHF iter   7:  -230.78149721667904   -1.57618e-08   3.49905e-08 DIIS
   @DF-RHF iter   8:  -230.78149721700208   -3.23041e-10   1.49597e-08 DIIS
   @DF-RHF iter   9:  -230.78149721704790   -4.58158e-11   2.99158e-09 DIIS
  Energy and wave function converged.


  ==> Post-Iterations <==

    Orbital Energies [Eh]
    ---------------------

    Doubly Occupied:                                                      

       1A    -11.236360     2A    -11.235809     3A    -11.235758  
       4A    -11.234567     5A    -11.234511     6A    -11.233933  
       7A     -1.150208     8A     -1.014904     9A     -1.014529  
      10A     -0.824192    11A     -0.824019    12A     -0.709601  
      13A     -0.644235    14A     -0.619015    15A     -0.588267  
      16A     -0.587864    17A     -0.502285    18A     -0.494946  
      19A     -0.494854    20A     -0.336881    21A     -0.336608  

    Virtual:                                                              

      22A      0.027995    23A      0.034407    24A      0.034601  
      25A      0.045106    26A      0.048009    27A      0.048067  
      28A      0.060998    29A      0.064535    30A      0.094570  
      31A      0.096225    32A      0.102131    33A      0.102258  
      34A      0.111449    35A      0.112726    36A      0.112743  
      37A      0.121179    38A      0.125886    39A      0.127833  
      40A      0.127943    41A      0.128072    42A      0.131932  
      43A      0.138194    44A      0.153668    45A      0.155223  
      46A      0.156693    47A      0.156805    48A      0.158122  
      49A      0.158198    50A      0.160685    51A      0.170628  
      52A      0.172291    53A      0.201505    54A      0.231199  
      55A      0.244026    56A      0.244982    57A      0.253925  
      58A      0.254204    59A      0.255434    60A      0.288962  
      61A      0.289227    62A      0.296165    63A      0.296358  
      64A      0.300365    65A      0.305666    66A      0.311468  
      67A      0.314169    68A      0.314813    69A      0.326993  
      70A      0.330740    71A      0.334193    72A      0.342666  
      73A      0.343423    74A      0.348416    75A      0.349170  
      76A      0.356804    77A      0.366487    78A      0.367542  
      79A      0.370467    80A      0.373894    81A      0.385838  
      82A      0.396262    83A      0.399760    84A      0.405857  
      85A      0.406081    86A      0.414899    87A      0.429120  
      88A      0.453956    89A      0.458019    90A      0.465922  
      91A      0.468417    92A      0.470042    93A      0.474210  
      94A      0.474429    95A      0.487618    96A      0.489286  
      97A      0.489827    98A      0.494641    99A      0.501483  
     100A      0.502110   101A      0.512586   102A      0.518049  
     103A      0.522051   104A      0.529072   105A      0.531799  
     106A      0.532002   107A      0.533716   108A      0.541892  
     109A      0.544180   110A      0.560600   111A      0.570055  
     112A      0.582101   113A      0.589052   114A      0.594858  
     115A      0.608566   116A      0.615330   117A      0.632325  
     118A      0.642494   119A      0.651123   120A      0.656875  
     121A      0.659468   122A      0.660885   123A      0.663606  
     124A      0.677144   125A      0.677330   126A      0.692771  
     127A      0.703159   128A      0.709084   129A      0.720102  
     130A      0.731118   131A      0.733103   132A      0.741716  
     133A      0.747843   134A      0.760267   135A      0.765361  
     136A      0.771621   137A      0.792506   138A      0.797439  
     139A      0.805918   140A      0.825291   141A      0.835809  
     142A      0.836869   143A      0.840677   144A      0.846103  
     145A      0.849263   146A      0.858227   147A      0.860678  
     148A      0.873217   149A      0.876228   150A      0.878502  
     151A      0.880845   152A      0.888600   153A      0.902006  
     154A      0.908332   155A      0.909031   156A      0.924441  
     157A      0.936312   158A      0.946425   159A      0.964573  
     160A      0.989426   161A      0.989456   162A      1.001913  
     163A      1.021291   164A      1.021764   165A      1.038531  
     166A      1.051473   167A      1.058215   168A      1.066141  
     169A      1.067312   170A      1.088681   171A      1.090015  
     172A      1.091804   173A      1.099988   174A      1.102013  
     175A      1.111251   176A      1.126786   177A      1.128467  
     178A      1.129366   179A      1.133528   180A      1.137295  
     181A      1.142259   182A      1.150198   183A      1.150216  
     184A      1.154899   185A      1.171918   186A      1.172039  
     187A      1.179028   188A      1.181760   189A      1.189650  
     190A      1.197051   191A      1.201221   192A      1.215165  
     193A      1.216152   194A      1.218899   195A      1.228448  
     196A      1.229998   197A      1.231055   198A      1.240592  
     199A      1.254723   200A      1.268277   201A      1.269712  
     202A      1.281103   203A      1.291634   204A      1.307058  
     205A      1.332022   206A      1.334864   207A      1.340115  
     208A      1.350267   209A      1.356266   210A      1.360862  
     211A      1.362349   212A      1.366294   213A      1.370690  
     214A      1.387781   215A      1.393469   216A      1.400950  
     217A      1.437889   218A      1.443608   219A      1.458406  
     220A      1.460631   221A      1.465788   222A      1.481886  
     223A      1.482742   224A      1.491750   225A      1.494397  
     226A      1.508480   227A      1.519548   228A      1.525926  
     229A      1.532815   230A      1.549763   231A      1.563255  
     232A      1.596380   233A      1.600513   234A      1.621379  
     235A      1.633353   236A      1.660984   237A      1.691983  
     238A      1.699472   239A      1.702215   240A      1.709610  
     241A      1.714520   242A      1.721458   243A      1.725962  
     244A      1.738929   245A      1.755384   246A      1.764285  
     247A      1.767601   248A      1.781577   249A      1.787555  
     250A      1.814167   251A      1.815702   252A      1.826528  
     253A      1.833862   254A      1.842950   255A      1.849489  
     256A      1.851849   257A      1.868694   258A      1.868851  
     259A      1.871674   260A      1.905126   261A      1.919158  
     262A      1.935613   263A      1.939997   264A      1.996688  
     265A      2.008624   266A      2.008975   267A      2.020630  
     268A      2.024823   269A      2.029953   270A      2.030131  
     271A      2.041745   272A      2.047449   273A      2.062976  
     274A      2.076309   275A      2.078085   276A      2.083713  
     277A      2.097839   278A      2.109906   279A      2.136955  
     280A      2.141523   281A      2.145733   282A      2.150835  
     283A      2.162049   284A      2.188719   285A      2.206498  
     286A      2.252239   287A      2.282700   288A      2.289535  
     289A      2.293443   290A      2.332919   291A      2.351717  
     292A      2.359410   293A      2.364572   294A      2.376865  
     295A      2.378662   296A      2.400019   297A      2.418132  
     298A      2.441960   299A      2.446376   300A      2.477278  
     301A      2.478476   302A      2.495999   303A      2.521200  
     304A      2.528698   305A      2.547816   306A      2.574754  
     307A      2.583358   308A      2.607279   309A      2.618437  
     310A      2.626342   311A      2.640149   312A      2.750431  
     313A      2.756371   314A      2.766078   315A      2.795231  
     316A      2.848534   317A      2.849805   318A      2.982516  
     319A      3.061334   320A      3.073293   321A      3.096511  
     322A      3.126349   323A      3.163695   324A      3.177952  
     325A      3.192007   326A      3.225312   327A      3.231824  
     328A      3.268544   329A      3.290834   330A      3.320634  
     331A      3.340252   332A      3.350474   333A      3.375721  
     334A      3.386125   335A      3.393693   336A      3.416301  
     337A      3.420926   338A      3.424524   339A      3.431471  
     340A      3.455376   341A      3.486884   342A      3.495952  
     343A      3.504042   344A      3.505833   345A      3.555748  
     346A      3.585185   347A      3.589849   348A      3.594576  
     349A      3.605462   350A      3.617278   351A      3.648852  
     352A      3.665778   353A      3.668728   354A      3.670766  
     355A      3.681648   356A      3.688792   357A      3.700147  
     358A      3.729304   359A      3.750208   360A      3.755417  
     361A      3.771971   362A      3.775314   363A      3.815256  
     364A      3.817377   365A      3.821021   366A      3.836315  
     367A      3.844892   368A      3.845832   369A      3.871742  
     370A      3.875535   371A      3.890812   372A      3.899315  
     373A      3.936845   374A      3.938374   375A      3.939809  
     376A      3.946566   377A      3.969768   378A      3.999341  
     379A      4.002823   380A      4.010466   381A      4.010764  
     382A      4.014404   383A      4.035387   384A      4.056201  
     385A      4.070073   386A      4.086132   387A      4.096142  
     388A      4.117100   389A      4.120804   390A      4.125367  
     391A      4.137505   392A      4.138936   393A      4.175997  
     394A      4.178214   395A      4.193416   396A      4.225077  
     397A      4.257990   398A      4.263719   399A      4.292103  
     400A      4.296878   401A      4.299407   402A      4.347675  
     403A      4.362792   404A      4.366597   405A      4.370027  
     406A      4.393625   407A      4.408182   408A      4.416628  
     409A      4.427407   410A      4.437368   411A      4.440324  
     412A      4.470186   413A      4.482077   414A      4.495403  
     415A      4.496651   416A      4.505823   417A      4.512398  
     418A      4.547443   419A      4.582426   420A      4.588977  
     421A      4.634279   422A      4.648055   423A      4.679696  
     424A      4.703655   425A      4.757592   426A      4.770570  
     427A      4.777578   428A      4.780047   429A      4.783730  
     430A      4.801319   431A      4.841331   432A      4.857076  
     433A      4.881124   434A      4.882169   435A      4.910481  
     436A      4.947324   437A      4.962807   438A      4.998749  
     439A      5.014557   440A      5.022640   441A      5.042822  
     442A      5.048553   443A      5.083792   444A      5.127553  
     445A      5.138258   446A      5.143855   447A      5.149926  
     448A      5.150816   449A      5.166885   450A      5.184096  
     451A      5.185915   452A      5.188339   453A      5.188637  
     454A      5.227749   455A      5.239459   456A      5.284350  
     457A      5.304694   458A      5.318622   459A      5.348195  
     460A      5.360515   461A      5.374312   462A      5.413367  
     463A      5.423978   464A      5.429369   465A      5.449229  
     466A      5.458878   467A      5.468924   468A      5.478860  
     469A      5.516186   470A      5.545357   471A      5.576686  
     472A      5.621784   473A      5.752176   474A      5.782221  
     475A      5.809149   476A      5.815770   477A      5.857701  
     478A      5.866630   479A      5.900201   480A      5.902215  
     481A      5.994947   482A      6.098092   483A      6.226730  
     484A      6.237336   485A      6.279010   486A      6.284918  
     487A      6.341916   488A      6.390242   489A      6.403042  
     490A      6.427137   491A      6.664744   492A      6.699837  
     493A      6.893685   494A      6.894760   495A      7.008811  
     496A      7.012509   497A      7.031522   498A      7.240510  
     499A      7.447453   500A     16.113968   501A     16.140278  
     502A     16.221797   503A     19.440834   504A     19.580529  
     505A     19.631888   506A     20.061563   507A     24.317475  
     508A     25.026442   509A     25.384777   510A    141.762093  

    Final Occupation by Irrep:
              A 
    DOCC [    21 ]

  @DF-RHF Final Energy:  -230.78149721704790

   => Energetics <=

    Nuclear Repulsion Energy =            203.6538916079341277
    One-Electron Energy =                -713.7640871360031269
    Two-Electron Energy =                 279.3286983110210713
    Total Energy =                       -230.7814972170478995

Computation Completed


Properties will be evaluated at   0.000000,   0.000000,   0.000000 [a0]

Properties computed using the SCF density matrix

  Nuclear Dipole Moment: [e a0]
     X:     0.0000      Y:    -0.0000      Z:    70.9823

  Electronic Dipole Moment: [e a0]
     X:    -0.0000      Y:    -0.0000      Z:   -70.9803

  Dipole Moment: [e a0]
     X:    -0.0000      Y:    -0.0000      Z:     0.0021     Total:     0.0021

  Dipole Moment: [D]
     X:    -0.0000      Y:    -0.0000      Z:     0.0052     Total:     0.0052


*** tstop() called on node54.bme.utexas.edu at Tue Sep 10 13:37:35 2019
Module time:
	user time   =      70.82 seconds =       1.18 minutes
	system time =       1.20 seconds =       0.02 minutes
	total time  =         19 seconds =       0.32 minutes
Total time:
	user time   =     200.57 seconds =       3.34 minutes
	system time =       3.47 seconds =       0.06 minutes
	total time  =         55 seconds =       0.92 minutes

  //>>>>>>>>>>>>>>>>>>>>>>>>>>>>>>>>>>>//
  //            Monomer B HF           //
  //<<<<<<<<<<<<<<<<<<<<<<<<<<<<<<<<<<<//


*** tstart() called on node54.bme.utexas.edu
*** at Tue Sep 10 13:37:35 2019

   => Loading Basis Set <=

    Name: AUG-CC-PVTZ
    Role: ORBITAL
    Keyword: BASIS
    atoms 1-6         entry C          line   235 file /home/xy3866/psi4conda/share/psi4/basis/aug-cc-pvtz.gbs 
    atoms 7-12, 14-15 entry H          line    36 file /home/xy3866/psi4conda/share/psi4/basis/aug-cc-pvtz.gbs 
    atoms 13          entry S          line   902 file /home/xy3866/psi4conda/share/psi4/basis/aug-cc-pvtz.gbs 


         ---------------------------------------------------------
                                   SCF
               by Justin Turney, Rob Parrish, Andy Simmonett
                          and Daniel G. A. Smith
                              RHF Reference
                        4 Threads,  30517 MiB Core
         ---------------------------------------------------------

  ==> Geometry <==

    Molecular point group: c1
    Full point group: C2v

    Geometry (in Angstrom), charge = 0, multiplicity = 1:

       Center              X                  Y                   Z               Mass       
    ------------   -----------------  -----------------  -----------------  -----------------
      Gh(C)           0.000000000000    -1.393658000000     0.894990213499    12.000000000000
      Gh(C)           1.207737000000    -0.696816000000     0.893765213499    12.000000000000
      Gh(C)           1.207737000000     0.696816000000     0.893765213499    12.000000000000
      Gh(C)           0.000000000000     1.393658000000     0.894990213499    12.000000000000
      Gh(C)          -1.207737000000     0.696816000000     0.893765213499    12.000000000000
      Gh(C)          -1.207737000000    -0.696816000000     0.893765213499    12.000000000000
      Gh(H)           0.000000000000    -2.475320000000     0.900264213499     1.007825032230
      Gh(H)           2.144314000000    -1.237314000000     0.892866213499     1.007825032230
      Gh(H)           2.144314000000     1.237314000000     0.892866213499     1.007825032230
      Gh(H)           0.000000000000     2.475320000000     0.900264213499     1.007825032230
      Gh(H)          -2.144314000000     1.237314000000     0.892866213499     1.007825032230
      Gh(H)          -2.144314000000    -1.237314000000     0.892866213499     1.007825032230
         S            0.000000000000     0.000000000000    -2.109035486501    31.972071174400
         H            0.000000000000     0.954437000000    -1.172967486501     1.007825032230
         H            0.000000000000    -0.954437000000    -1.172967486501     1.007825032230

  Running in c1 symmetry.

  Rotational constants: A =      0.09427  B =      0.05696  C =      0.05663 [cm^-1]
  Rotational constants: A =   2826.03195  B =   1707.64301  C =   1697.72433 [MHz]
  Nuclear repulsion =   12.944044801570232

  Charge       = 0
  Multiplicity = 1
  Electrons    = 18
  Nalpha       = 9
  Nbeta        = 9

  ==> Algorithm <==

  SCF Algorithm Type is DF.
  DIIS enabled.
  MOM disabled.
  Fractional occupation disabled.
  Guess Type is SAD.
  Energy threshold   = 1.00e-08
  Density threshold  = 1.00e-08
  Integral threshold = 0.00e+00

  ==> Primary Basis <==

  Basis Set: AUG-CC-PVTZ
    Blend: AUG-CC-PVTZ
    Number of shells: 172
    Number of basis function: 510
    Number of Cartesian functions: 589
    Spherical Harmonics?: true
    Max angular momentum: 3

   => Loading Basis Set <=

    Name: (AUG-CC-PVTZ AUX)
    Role: JKFIT
    Keyword: DF_BASIS_SCF
    atoms 1-6         entry C          line   162 file /home/xy3866/psi4conda/share/psi4/basis/aug-cc-pvtz-jkfit.gbs 
    atoms 7-12, 14-15 entry H          line    70 file /home/xy3866/psi4conda/share/psi4/basis/aug-cc-pvtz-jkfit.gbs 
    atoms 13          entry S          line   730 file /home/xy3866/psi4conda/share/psi4/basis/aug-cc-pvtz-jkfit.gbs 

  ==> Pre-Iterations <==

   -------------------------------------------------------
    Irrep   Nso     Nmo     Nalpha   Nbeta   Ndocc  Nsocc
   -------------------------------------------------------
     A        510     510       0       0       0       0
   -------------------------------------------------------
    Total     510     510       9       9       9       0
   -------------------------------------------------------

  ==> Integral Setup <==

  ==> DiskDFJK: Density-Fitted J/K Matrices <==

    J tasked:                  Yes
    K tasked:                  Yes
    wK tasked:                  No
    OpenMP threads:              4
    Integrals threads:           4
    Memory [MiB]:            22888
    Algorithm:                Core
    Integral Cache:           LOAD
    Schwarz Cutoff:          1E-12
    Fitting Condition:       1E-10

   => Auxiliary Basis Set <=

  Basis Set: (AUG-CC-PVTZ AUX)
    Blend: AUG-CC-PVTZ-JKFIT
    Number of shells: 334
    Number of basis function: 1138
    Number of Cartesian functions: 1406
    Spherical Harmonics?: true
    Max angular momentum: 4

  Minimum eigenvalue in the overlap matrix is 2.6415070961E-07.
  Using Symmetric Orthogonalization.

  SCF Guess: Superposition of Atomic Densities via on-the-fly atomic UHF.

  ==> Iterations <==

                           Total Energy        Delta E     RMS |[F,P]|

   @DF-RHF iter SAD:  -398.42061468461515   -3.98421e+02   0.00000e+00 
   @DF-RHF iter   1:  -398.67951778515754   -2.58903e-01   4.22308e-04 DIIS
   @DF-RHF iter   2:  -398.70930494221898   -2.97872e-02   1.59619e-04 DIIS
   @DF-RHF iter   3:  -398.71303851222018   -3.73357e-03   3.91028e-05 DIIS
   @DF-RHF iter   4:  -398.71374237363932   -7.03861e-04   7.76299e-06 DIIS
   @DF-RHF iter   5:  -398.71377245821918   -3.00846e-05   1.14824e-06 DIIS
   @DF-RHF iter   6:  -398.71377304072678   -5.82508e-07   2.93281e-07 DIIS
   @DF-RHF iter   7:  -398.71377308128831   -4.05615e-08   7.40270e-08 DIIS
   @DF-RHF iter   8:  -398.71377308387554   -2.58723e-09   1.31698e-08 DIIS
   @DF-RHF iter   9:  -398.71377308394426   -6.87237e-11   2.55657e-09 DIIS
  Energy and wave function converged.


  ==> Post-Iterations <==

    Orbital Energies [Eh]
    ---------------------

    Doubly Occupied:                                                      

       1A    -91.967174     2A     -8.969068     3A     -6.650336  
       4A     -6.649567     5A     -6.648270     6A     -0.982588  
       7A     -0.587447     8A     -0.503562     9A     -0.385502  

    Virtual:                                                              

      10A      0.017241    11A      0.029938    12A      0.032143  
      13A      0.046644    14A      0.047508    15A      0.048745  
      16A      0.059381    17A      0.065049    18A      0.069676  
      19A      0.090233    20A      0.090725    21A      0.091204  
      22A      0.105299    23A      0.107253    24A      0.117118  
      25A      0.120043    26A      0.120699    27A      0.123067  
      28A      0.124220    29A      0.125413    30A      0.126634  
      31A      0.145335    32A      0.153028    33A      0.153119  
      34A      0.157043    35A      0.157195    36A      0.161418  
      37A      0.171326    38A      0.172083    39A      0.174007  
      40A      0.179817    41A      0.191854    42A      0.212627  
      43A      0.217854    44A      0.221447    45A      0.224550  
      46A      0.232645    47A      0.250118    48A      0.264846  
      49A      0.274495    50A      0.274782    51A      0.282801  
      52A      0.301776    53A      0.306951    54A      0.308049  
      55A      0.310169    56A      0.310571    57A      0.318467  
      58A      0.319602    59A      0.329443    60A      0.336647  
      61A      0.337151    62A      0.355335    63A      0.357141  
      64A      0.360673    65A      0.366579    66A      0.370687  
      67A      0.377386    68A      0.383560    69A      0.385019  
      70A      0.397026    71A      0.398655    72A      0.405387  
      73A      0.406755    74A      0.408624    75A      0.424485  
      76A      0.424914    77A      0.425690    78A      0.430323  
      79A      0.450556    80A      0.450872    81A      0.454360  
      82A      0.475538    83A      0.479293    84A      0.488873  
      85A      0.490495    86A      0.511811    87A      0.516960  
      88A      0.517566    89A      0.522296    90A      0.525461  
      91A      0.531918    92A      0.548444    93A      0.552142  
      94A      0.556435    95A      0.558372    96A      0.564716  
      97A      0.570765    98A      0.590281    99A      0.592267  
     100A      0.596180   101A      0.607170   102A      0.611994  
     103A      0.626682   104A      0.643475   105A      0.644789  
     106A      0.652195   107A      0.655822   108A      0.659473  
     109A      0.662073   110A      0.668801   111A      0.676353  
     112A      0.676626   113A      0.688979   114A      0.693799  
     115A      0.695615   116A      0.701928   117A      0.710480  
     118A      0.714585   119A      0.715181   120A      0.720891  
     121A      0.725638   122A      0.742577   123A      0.742866  
     124A      0.751600   125A      0.771403   126A      0.776556  
     127A      0.780717   128A      0.789873   129A      0.790215  
     130A      0.812389   131A      0.825603   132A      0.840028  
     133A      0.841219   134A      0.853609   135A      0.860711  
     136A      0.887570   137A      0.891994   138A      0.902686  
     139A      0.905397   140A      0.913483   141A      0.913517  
     142A      0.917097   143A      0.945639   144A      0.959059  
     145A      0.969323   146A      0.986404   147A      0.989766  
     148A      1.007534   149A      1.016152   150A      1.022920  
     151A      1.038553   152A      1.046715   153A      1.054349  
     154A      1.066060   155A      1.073810   156A      1.081820  
     157A      1.083496   158A      1.088933   159A      1.101129  
     160A      1.110807   161A      1.112048   162A      1.136793  
     163A      1.150855   164A      1.152298   165A      1.152720  
     166A      1.163042   167A      1.163941   168A      1.178851  
     169A      1.188190   170A      1.192755   171A      1.199059  
     172A      1.202415   173A      1.207211   174A      1.213810  
     175A      1.239669   176A      1.240921   177A      1.241022  
     178A      1.247461   179A      1.248998   180A      1.255667  
     181A      1.261590   182A      1.279082   183A      1.279903  
     184A      1.281941   185A      1.287571   186A      1.304674  
     187A      1.306405   188A      1.308235   189A      1.312885  
     190A      1.315674   191A      1.324580   192A      1.330844  
     193A      1.359064   194A      1.367946   195A      1.380144  
     196A      1.380436   197A      1.383918   198A      1.400455  
     199A      1.408489   200A      1.415321   201A      1.423396  
     202A      1.440759   203A      1.464495   204A      1.464530  
     205A      1.485413   206A      1.515170   207A      1.519041  
     208A      1.519198   209A      1.527043   210A      1.533995  
     211A      1.542222   212A      1.547453   213A      1.548424  
     214A      1.559473   215A      1.562370   216A      1.567336  
     217A      1.572130   218A      1.572485   219A      1.583371  
     220A      1.597616   221A      1.629671   222A      1.636085  
     223A      1.652890   224A      1.661399   225A      1.663475  
     226A      1.665245   227A      1.673746   228A      1.676294  
     229A      1.699795   230A      1.702219   231A      1.739657  
     232A      1.762204   233A      1.763605   234A      1.792940  
     235A      1.810251   236A      1.810767   237A      1.835196  
     238A      1.855255   239A      1.857737   240A      1.870299  
     241A      1.881172   242A      1.887925   243A      1.888620  
     244A      1.891666   245A      1.911929   246A      1.930847  
     247A      1.945448   248A      1.955263   249A      2.008344  
     250A      2.016485   251A      2.016570   252A      2.035275  
     253A      2.062669   254A      2.070200   255A      2.103662  
     256A      2.129189   257A      2.144294   258A      2.155921  
     259A      2.158215   260A      2.171980   261A      2.181865  
     262A      2.186418   263A      2.196348   264A      2.202031  
     265A      2.208696   266A      2.218672   267A      2.247909  
     268A      2.254341   269A      2.289534   270A      2.291447  
     271A      2.306044   272A      2.310347   273A      2.323067  
     274A      2.330419   275A      2.334999   276A      2.339543  
     277A      2.343647   278A      2.371675   279A      2.371927  
     280A      2.376871   281A      2.396184   282A      2.415734  
     283A      2.433722   284A      2.450941   285A      2.466882  
     286A      2.471553   287A      2.479492   288A      2.487354  
     289A      2.504921   290A      2.510243   291A      2.510817  
     292A      2.515134   293A      2.524760   294A      2.533313  
     295A      2.541935   296A      2.549853   297A      2.554319  
     298A      2.576715   299A      2.597995   300A      2.611726  
     301A      2.630001   302A      2.645511   303A      2.647396  
     304A      2.672369   305A      2.700859   306A      2.750426  
     307A      2.774140   308A      2.811820   309A      2.815669  
     310A      2.834769   311A      2.835811   312A      2.841838  
     313A      2.878318   314A      2.879720   315A      2.903250  
     316A      2.914683   317A      2.923803   318A      2.927538  
     319A      2.946399   320A      3.027529   321A      3.043012  
     322A      3.090752   323A      3.131984   324A      3.132591  
     325A      3.253075   326A      3.284063   327A      3.294149  
     328A      3.433499   329A      3.483295   330A      3.489368  
     331A      3.592830   332A      3.770726   333A      3.778413  
     334A      3.815311   335A      3.861879   336A      3.929298  
     337A      3.940738   338A      3.977859   339A      3.982425  
     340A      3.986123   341A      4.019726   342A      4.048830  
     343A      4.052589   344A      4.073961   345A      4.084196  
     346A      4.104661   347A      4.119467   348A      4.140104  
     349A      4.147521   350A      4.152171   351A      4.154651  
     352A      4.168439   353A      4.178271   354A      4.205131  
     355A      4.226556   356A      4.230693   357A      4.235402  
     358A      4.247284   359A      4.266866   360A      4.272591  
     361A      4.324249   362A      4.333522   363A      4.340967  
     364A      4.347016   365A      4.368616   366A      4.404744  
     367A      4.428019   368A      4.440534   369A      4.458975  
     370A      4.470059   371A      4.479189   372A      4.503575  
     373A      4.507073   374A      4.522339   375A      4.522526  
     376A      4.539523   377A      4.554116   378A      4.562890  
     379A      4.567388   380A      4.588625   381A      4.599088  
     382A      4.603219   383A      4.616468   384A      4.629492  
     385A      4.637370   386A      4.643366   387A      4.671867  
     388A      4.683030   389A      4.694923   390A      4.747647  
     391A      4.761092   392A      4.772926   393A      4.824709  
     394A      4.863449   395A      4.865488   396A      4.893434  
     397A      4.899910   398A      4.923598   399A      4.949677  
     400A      4.980960   401A      4.993180   402A      5.014165  
     403A      5.016685   404A      5.073922   405A      5.077117  
     406A      5.084897   407A      5.097988   408A      5.111830  
     409A      5.116476   410A      5.138044   411A      5.151706  
     412A      5.153952   413A      5.176946   414A      5.195499  
     415A      5.206019   416A      5.227109   417A      5.227290  
     418A      5.256419   419A      5.269130   420A      5.283909  
     421A      5.316260   422A      5.395322   423A      5.416312  
     424A      5.432535   425A      5.440497   426A      5.448354  
     427A      5.485507   428A      5.527865   429A      5.534827  
     430A      5.540710   431A      5.554627   432A      5.599642  
     433A      5.643175   434A      5.678966   435A      5.684057  
     436A      5.689136   437A      5.711074   438A      5.717233  
     439A      5.729586   440A      5.737637   441A      5.764218  
     442A      5.794963   443A      5.795103   444A      5.826701  
     445A      5.840705   446A      5.845222   447A      5.875266  
     448A      5.954195   449A      5.974326   450A      5.974543  
     451A      6.000066   452A      6.015281   453A      6.040645  
     454A      6.127533   455A      6.133094   456A      6.162951  
     457A      6.191530   458A      6.198772   459A      6.207212  
     460A      6.213374   461A      6.443283   462A      6.466290  
     463A      6.514692   464A      6.518486   465A      6.613035  
     466A      6.701398   467A      6.804870   468A      6.874380  
     469A      6.894805   470A      6.910536   471A      7.071436  
     472A      7.128069   473A      7.142945   474A      7.169426  
     475A      7.182922   476A      7.241894   477A      7.273943  
     478A      7.409449   479A      7.488339   480A      7.540055  
     481A      7.592110   482A      7.663539   483A      7.674300  
     484A      7.792888   485A      7.899878   486A      8.039572  
     487A      8.200575   488A      8.205854   489A      8.208333  
     490A      8.324216   491A      8.344672   492A      8.656657  
     493A      8.970654   494A      8.981807   495A      9.359035  
     496A      9.441508   497A      9.658253   498A     10.047472  
     499A     10.055621   500A     10.991297   501A     11.030888  
     502A     11.359294   503A     11.440873   504A     11.488705  
     505A     49.785959   506A     49.995381   507A     55.112833  
     508A     55.822482   509A     56.623257   510A     56.980149  

    Final Occupation by Irrep:
              A 
    DOCC [     9 ]

  @DF-RHF Final Energy:  -398.71377308394426

   => Energetics <=

    Nuclear Repulsion Energy =             12.9440448015702323
    One-Electron Energy =                -576.6286073703685133
    Two-Electron Energy =                 164.9707894848540093
    Total Energy =                       -398.7137730839442611

Computation Completed


Properties will be evaluated at   0.000000,   0.000000,   0.000000 [a0]

Properties computed using the SCF density matrix

  Nuclear Dipole Moment: [e a0]
     X:     0.0000      Y:     0.0000      Z:   -68.2012

  Electronic Dipole Moment: [e a0]
     X:     0.0000      Y:    -0.0000      Z:    68.6285

  Dipole Moment: [e a0]
     X:     0.0000      Y:    -0.0000      Z:     0.4274     Total:     0.4274

  Dipole Moment: [D]
     X:     0.0000      Y:    -0.0000      Z:     1.0863     Total:     1.0863


*** tstop() called on node54.bme.utexas.edu at Tue Sep 10 13:37:56 2019
Module time:
	user time   =      64.39 seconds =       1.07 minutes
	system time =       0.99 seconds =       0.02 minutes
	total time  =         21 seconds =       0.35 minutes
Total time:
	user time   =     264.99 seconds =       4.42 minutes
	system time =       4.46 seconds =       0.07 minutes
	total time  =         76 seconds =       1.27 minutes
  Constructing Basis Sets for SAPT...

   => Loading Basis Set <=

    Name: (AUG-CC-PVTZ AUX)
    Role: RIFIT
    Keyword: DF_BASIS_SAPT
    atoms 1-6         entry C          line   148 file /home/xy3866/psi4conda/share/psi4/basis/aug-cc-pvtz-ri.gbs 
    atoms 7-12, 14-15 entry H          line    30 file /home/xy3866/psi4conda/share/psi4/basis/aug-cc-pvtz-ri.gbs 
    atoms 13          entry S          line   666 file /home/xy3866/psi4conda/share/psi4/basis/aug-cc-pvtz-ri.gbs 


  //>>>>>>>>>>>>>>>>>>>>>>>>>>>>>>>>>>>//
  //               SAPT2+              //
  //<<<<<<<<<<<<<<<<<<<<<<<<<<<<<<<<<<<//


*** tstart() called on node54.bme.utexas.edu
*** at Tue Sep 10 13:37:56 2019

        SAPT2+  
    Ed Hohenstein
     6 June 2009

      Orbital Information
  --------------------------
    NSO        =       510
    NMO        =       510
    NRI        =      1151
    NOCC A     =        21
    NOCC B     =         9
    FOCC A     =         6
    FOCC B     =         5
    NVIR A     =       489
    NVIR B     =       501

    Estimated memory usage: 4967.8 MB

    Natural Orbital Cutoff:   1.000E-06
    Disp(T3) Truncation:            Yes
    CCD (vv|vv) Truncation:         Yes
    MBPT T2 Truncation:             Yes

    Monomer A: 134 virtual orbitals dropped
    Monomer B: 408 virtual orbitals dropped

