
    -----------------------------------------------------------------------
          Psi4: An Open-Source Ab Initio Electronic Structure Package
                               Psi4 1.3.2 release

                         Git: Rev {HEAD} ecbda83 


    R. M. Parrish, L. A. Burns, D. G. A. Smith, A. C. Simmonett,
    A. E. DePrince III, E. G. Hohenstein, U. Bozkaya, A. Yu. Sokolov,
    R. Di Remigio, R. M. Richard, J. F. Gonthier, A. M. James,
    H. R. McAlexander, A. Kumar, M. Saitow, X. Wang, B. P. Pritchard,
    P. Verma, H. F. Schaefer III, K. Patkowski, R. A. King, E. F. Valeev,
    F. A. Evangelista, J. M. Turney, T. D. Crawford, and C. D. Sherrill,
    J. Chem. Theory Comput. 13(7) pp 3185--3197 (2017).
    (doi: 10.1021/acs.jctc.7b00174)


                         Additional Contributions by
    P. Kraus, H. Kruse, M. H. Lechner, M. C. Schieber, R. A. Shaw,
    A. Alenaizan, R. Galvelis, Z. L. Glick, S. Lehtola, and J. P. Misiewicz

    -----------------------------------------------------------------------


    Psi4 started on: Tuesday, 10 September 2019 11:12AM

    Process ID: 42781
    Host:       node51.bme.utexas.edu
    PSIDATADIR: /home/xy3866/psi4conda/share/psi4
    Memory:     500.0 MiB
    Threads:    4
    
  ==> Input File <==

--------------------------------------------------------------------------
#psi4
#
memory 32 gb

molecule  {
0 1
  C        0.0000000    -1.3936580     1.0640200
  C        1.2077370    -0.6968160     1.0627950
  C        1.2077370     0.6968160     1.0627950
  C        0.0000000     1.3936580     1.0640200
  C       -1.2077370     0.6968160     1.0627950
  C       -1.2077370    -0.6968160     1.0627950
  H        0.0000000    -2.4753200     1.0692940
  H        2.1443140    -1.2373140     1.0618960
  H        2.1443140     1.2373140     1.0618960
  H        0.0000000     2.4753200     1.0692940
  H       -2.1443140     1.2373140     1.0618960
  H       -2.1443140    -1.2373140     1.0618960
--
0 1
  S        0.0000000     0.0000000    -2.6908080
  H        0.0000000     0.9544370    -1.7547400
  H        0.0000000    -0.9544370    -1.7547400
units angstrom
no_reorient  #important for SAPT in psi4, default
symmetry c1  #important for SAPT in psi4, default
}

set {
basis aug-cc-pVTZ
scf_type DF
freeze_core True
}
energy('sapt2+')
--------------------------------------------------------------------------

  Memory set to  29.802 GiB by Python driver.

  //>>>>>>>>>>>>>>>>>>>>>>>>>>>>>>>>>>>//
  //              Dimer HF             //
  //<<<<<<<<<<<<<<<<<<<<<<<<<<<<<<<<<<<//


*** tstart() called on node51.bme.utexas.edu
*** at Tue Sep 10 11:12:08 2019

   => Loading Basis Set <=

    Name: AUG-CC-PVTZ
    Role: ORBITAL
    Keyword: BASIS
    atoms 1-6         entry C          line   235 file /home/xy3866/psi4conda/share/psi4/basis/aug-cc-pvtz.gbs 
    atoms 7-12, 14-15 entry H          line    36 file /home/xy3866/psi4conda/share/psi4/basis/aug-cc-pvtz.gbs 
    atoms 13          entry S          line   902 file /home/xy3866/psi4conda/share/psi4/basis/aug-cc-pvtz.gbs 


         ---------------------------------------------------------
                                   SCF
               by Justin Turney, Rob Parrish, Andy Simmonett
                          and Daniel G. A. Smith
                              RHF Reference
                        4 Threads,  30517 MiB Core
         ---------------------------------------------------------

  ==> Geometry <==

    Molecular point group: c1
    Full point group: C2v

    Geometry (in Angstrom), charge = 0, multiplicity = 1:

       Center              X                  Y                   Z               Mass       
    ------------   -----------------  -----------------  -----------------  -----------------
         C            0.000000000000    -1.393658000000     1.122759518766    12.000000000000
         C            1.207737000000    -0.696816000000     1.121534518766    12.000000000000
         C            1.207737000000     0.696816000000     1.121534518766    12.000000000000
         C            0.000000000000     1.393658000000     1.122759518766    12.000000000000
         C           -1.207737000000     0.696816000000     1.121534518766    12.000000000000
         C           -1.207737000000    -0.696816000000     1.121534518766    12.000000000000
         H            0.000000000000    -2.475320000000     1.128033518766     1.007825032230
         H            2.144314000000    -1.237314000000     1.120635518766     1.007825032230
         H            2.144314000000     1.237314000000     1.120635518766     1.007825032230
         H            0.000000000000     2.475320000000     1.128033518766     1.007825032230
         H           -2.144314000000     1.237314000000     1.120635518766     1.007825032230
         H           -2.144314000000    -1.237314000000     1.120635518766     1.007825032230
         S            0.000000000000     0.000000000000    -2.632068481234    31.972071174400
         H            0.000000000000     0.954437000000    -1.696000481234     1.007825032230
         H            0.000000000000    -0.954437000000    -1.696000481234     1.007825032230

  Running in c1 symmetry.

  Rotational constants: A =      0.09427  B =      0.04071  C =      0.04054 [cm^-1]
  Rotational constants: A =   2826.03195  B =   1220.42223  C =   1215.34765 [MHz]
  Nuclear repulsion =  317.413695750532952

  Charge       = 0
  Multiplicity = 1
  Electrons    = 60
  Nalpha       = 30
  Nbeta        = 30

  ==> Algorithm <==

  SCF Algorithm Type is DF.
  DIIS enabled.
  MOM disabled.
  Fractional occupation disabled.
  Guess Type is SAD.
  Energy threshold   = 1.00e-08
  Density threshold  = 1.00e-08
  Integral threshold = 0.00e+00

  ==> Primary Basis <==

  Basis Set: AUG-CC-PVTZ
    Blend: AUG-CC-PVTZ
    Number of shells: 172
    Number of basis function: 510
    Number of Cartesian functions: 589
    Spherical Harmonics?: true
    Max angular momentum: 3

   => Loading Basis Set <=

    Name: (AUG-CC-PVTZ AUX)
    Role: JKFIT
    Keyword: DF_BASIS_SCF
    atoms 1-6         entry C          line   162 file /home/xy3866/psi4conda/share/psi4/basis/aug-cc-pvtz-jkfit.gbs 
    atoms 7-12, 14-15 entry H          line    70 file /home/xy3866/psi4conda/share/psi4/basis/aug-cc-pvtz-jkfit.gbs 
    atoms 13          entry S          line   730 file /home/xy3866/psi4conda/share/psi4/basis/aug-cc-pvtz-jkfit.gbs 

  ==> Pre-Iterations <==

   -------------------------------------------------------
    Irrep   Nso     Nmo     Nalpha   Nbeta   Ndocc  Nsocc
   -------------------------------------------------------
     A        510     510       0       0       0       0
   -------------------------------------------------------
    Total     510     510      30      30      30       0
   -------------------------------------------------------

  ==> Integral Setup <==

  ==> DiskDFJK: Density-Fitted J/K Matrices <==

    J tasked:                  Yes
    K tasked:                  Yes
    wK tasked:                  No
    OpenMP threads:              4
    Integrals threads:           4
    Memory [MiB]:            22888
    Algorithm:                Core
    Integral Cache:           SAVE
    Schwarz Cutoff:          1E-12
    Fitting Condition:       1E-10

   => Auxiliary Basis Set <=

  Basis Set: (AUG-CC-PVTZ AUX)
    Blend: AUG-CC-PVTZ-JKFIT
    Number of shells: 334
    Number of basis function: 1138
    Number of Cartesian functions: 1406
    Spherical Harmonics?: true
    Max angular momentum: 4

  Minimum eigenvalue in the overlap matrix is 2.6434894164E-07.
  Using Symmetric Orthogonalization.

  SCF Guess: Superposition of Atomic Densities via on-the-fly atomic UHF.

  ==> Iterations <==

                           Total Energy        Delta E     RMS |[F,P]|

   @DF-RHF iter SAD:  -628.72684585858894   -6.28727e+02   0.00000e+00 
   @DF-RHF iter   1:  -629.28592481270084   -5.59079e-01   1.13230e-03 DIIS
   @DF-RHF iter   2:  -629.45412176078685   -1.68197e-01   5.30387e-04 DIIS
   @DF-RHF iter   3:  -629.49098751649797   -3.68658e-02   1.01047e-04 DIIS
   @DF-RHF iter   4:  -629.49336108634293   -2.37357e-03   2.34610e-05 DIIS
   @DF-RHF iter   5:  -629.49350194179885   -1.40855e-04   6.29901e-06 DIIS
   @DF-RHF iter   6:  -629.49351599166062   -1.40499e-05   1.65500e-06 DIIS
   @DF-RHF iter   7:  -629.49351712034013   -1.12868e-06   4.49621e-07 DIIS
   @DF-RHF iter   8:  -629.49351719596825   -7.56281e-08   1.07804e-07 DIIS
   @DF-RHF iter   9:  -629.49351720002915   -4.06089e-09   2.44745e-08 DIIS
   @DF-RHF iter  10:  -629.49351720026561   -2.36469e-10   6.26019e-09 DIIS
  Energy and wave function converged.


  ==> Post-Iterations <==

    Orbital Energies [Eh]
    ---------------------

    Doubly Occupied:                                                      

       1A    -91.948975     2A    -11.244500     3A    -11.244043  
       4A    -11.243784     5A    -11.242769     6A    -11.242537  
       7A    -11.242040     8A     -8.951398     9A     -6.632740  
      10A     -6.631983    11A     -6.630732    12A     -1.159257  
      13A     -1.023564    14A     -1.023198    15A     -0.966623  
      16A     -0.832523    17A     -0.832226    18A     -0.717787  
      19A     -0.652010    20A     -0.627373    21A     -0.596279  
      22A     -0.596064    23A     -0.572573    24A     -0.521050  
      25A     -0.503015    26A     -0.502730    27A     -0.478262  
      28A     -0.372918    29A     -0.346272    30A     -0.342926  

    Virtual:                                                              

      31A      0.027376    32A      0.032650    33A      0.034020  
      34A      0.046331    35A      0.046544    36A      0.051134  
      37A      0.061803    38A      0.063282    39A      0.093319  
      40A      0.095274    41A      0.097819    42A      0.104043  
      43A      0.110214    44A      0.116424    45A      0.117575  
      46A      0.118907    47A      0.120882    48A      0.124597  
      49A      0.124679    50A      0.129120    51A      0.131972  
      52A      0.145641    53A      0.150867    54A      0.151791  
      55A      0.152162    56A      0.155469    57A      0.156098  
      58A      0.158434    59A      0.163866    60A      0.164930  
      61A      0.176382    62A      0.192940    63A      0.200462  
      64A      0.227600    65A      0.229423    66A      0.239368  
      67A      0.241590    68A      0.254461    69A      0.257222  
      70A      0.270210    71A      0.275464    72A      0.297343  
      73A      0.298421    74A      0.302540    75A      0.305662  
      76A      0.307409    77A      0.311283    78A      0.323769  
      79A      0.325731    80A      0.325959    81A      0.329413  
      82A      0.335473    83A      0.341540    84A      0.344704  
      85A      0.344918    86A      0.346431    87A      0.346809  
      88A      0.357242    89A      0.359815    90A      0.371940  
      91A      0.376440    92A      0.384548    93A      0.392110  
      94A      0.400623    95A      0.413818    96A      0.422978  
      97A      0.430103    98A      0.431754    99A      0.445308  
     100A      0.449360   101A      0.457554   102A      0.461436  
     103A      0.468544   104A      0.472071   105A      0.479776  
     106A      0.481523   107A      0.483821   108A      0.492484  
     109A      0.495618   110A      0.497471   111A      0.497780  
     112A      0.503030   113A      0.508959   114A      0.513010  
     115A      0.521418   116A      0.525612   117A      0.529079  
     118A      0.532159   119A      0.541325   120A      0.549233  
     121A      0.549862   122A      0.556772   123A      0.556916  
     124A      0.599921   125A      0.604320   126A      0.616654  
     127A      0.628195   128A      0.634200   129A      0.634836  
     130A      0.651910   131A      0.652573   132A      0.653226  
     133A      0.656955   134A      0.661569   135A      0.671186  
     136A      0.679836   137A      0.698984   138A      0.704863  
     139A      0.706107   140A      0.721912   141A      0.730389  
     142A      0.733206   143A      0.739392   144A      0.750954  
     145A      0.753548   146A      0.775064   147A      0.781426  
     148A      0.782419   149A      0.789045   150A      0.789359  
     151A      0.793716   152A      0.804253   153A      0.804497  
     154A      0.805760   155A      0.830513   156A      0.830700  
     157A      0.852100   158A      0.854277   159A      0.856063  
     160A      0.866815   161A      0.870844   162A      0.874707  
     163A      0.885107   164A      0.892218   165A      0.898080  
     166A      0.901516   167A      0.903121   168A      0.915506  
     169A      0.922529   170A      0.933500   171A      0.935336  
     172A      0.947252   173A      0.951878   174A      0.955459  
     175A      0.962247   176A      0.965791   177A      0.984377  
     178A      0.999634   179A      1.013770   180A      1.027010  
     181A      1.029959   182A      1.032710   183A      1.040155  
     184A      1.047345   185A      1.070673   186A      1.073792  
     187A      1.077468   188A      1.085864   189A      1.093724  
     190A      1.094064   191A      1.100151   192A      1.108095  
     193A      1.108309   194A      1.116504   195A      1.125413  
     196A      1.127762   197A      1.141358   198A      1.141948  
     199A      1.150550   200A      1.152035   201A      1.159258  
     202A      1.163347   203A      1.166054   204A      1.178262  
     205A      1.189504   206A      1.190843   207A      1.201240  
     208A      1.210760   209A      1.219319   210A      1.225725  
     211A      1.230976   212A      1.232169   213A      1.250096  
     214A      1.259412   215A      1.267345   216A      1.270818  
     217A      1.281384   218A      1.283061   219A      1.287699  
     220A      1.296091   221A      1.309668   222A      1.325041  
     223A      1.341255   224A      1.358048   225A      1.380963  
     226A      1.386100   227A      1.389597   228A      1.390161  
     229A      1.401551   230A      1.416557   231A      1.417474  
     232A      1.418841   233A      1.427028   234A      1.434650  
     235A      1.447599   236A      1.457663   237A      1.472655  
     238A      1.503639   239A      1.515378   240A      1.518680  
     241A      1.520966   242A      1.528947   243A      1.535917  
     244A      1.540259   245A      1.555696   246A      1.569450  
     247A      1.572094   248A      1.601319   249A      1.666772  
     250A      1.681963   251A      1.695582   252A      1.704636  
     253A      1.704716   254A      1.706601   255A      1.715930  
     256A      1.735148   257A      1.744090   258A      1.750177  
     259A      1.758458   260A      1.762435   261A      1.785411  
     262A      1.792300   263A      1.794674   264A      1.816611  
     265A      1.816953   266A      1.832506   267A      1.834527  
     268A      1.844851   269A      1.852781   270A      1.852841  
     271A      1.882439   272A      1.894600   273A      1.912742  
     274A      1.916089   275A      1.938035   276A      1.947940  
     277A      1.972215   278A      1.976516   279A      2.001186  
     280A      2.005638   281A      2.013602   282A      2.015587  
     283A      2.030258   284A      2.035366   285A      2.043469  
     286A      2.059737   287A      2.071671   288A      2.080295  
     289A      2.081259   290A      2.081694   291A      2.099977  
     292A      2.101772   293A      2.126591   294A      2.128307  
     295A      2.147461   296A      2.189932   297A      2.221418  
     298A      2.231758   299A      2.252751   300A      2.260234  
     301A      2.275665   302A      2.292893   303A      2.310082  
     304A      2.339069   305A      2.344127   306A      2.356613  
     307A      2.357530   308A      2.359046   309A      2.366863  
     310A      2.401219   311A      2.406916   312A      2.415383  
     313A      2.451784   314A      2.458341   315A      2.472711  
     316A      2.493421   317A      2.508621   318A      2.509214  
     319A      2.520358   320A      2.563120   321A      2.569416  
     322A      2.583746   323A      2.584808   324A      2.598979  
     325A      2.628570   326A      2.702095   327A      2.709048  
     328A      2.747478   329A      2.759109   330A      2.777848  
     331A      2.787294   332A      2.787618   333A      2.796990  
     334A      2.842262   335A      2.842589   336A      2.927856  
     337A      3.005374   338A      3.056184   339A      3.057387  
     340A      3.119953   341A      3.144620   342A      3.192900  
     343A      3.254362   344A      3.262667   345A      3.266070  
     346A      3.305204   347A      3.325724   348A      3.333184  
     349A      3.339151   350A      3.351693   351A      3.372715  
     352A      3.373753   353A      3.394413   354A      3.407611  
     355A      3.409219   356A      3.418492   357A      3.432151  
     358A      3.447959   359A      3.458440   360A      3.466342  
     361A      3.533217   362A      3.536918   363A      3.537295  
     364A      3.546346   365A      3.591628   366A      3.602927  
     367A      3.613045   368A      3.638647   369A      3.647840  
     370A      3.662890   371A      3.667838   372A      3.674922  
     373A      3.682434   374A      3.719882   375A      3.754791  
     376A      3.771707   377A      3.775130   378A      3.808551  
     379A      3.812712   380A      3.831067   381A      3.835140  
     382A      3.838422   383A      3.842789   384A      3.882713  
     385A      3.891300   386A      3.923388   387A      3.929490  
     388A      3.956764   389A      3.968138   390A      3.974128  
     391A      3.988342   392A      3.992274   393A      4.010757  
     394A      4.042754   395A      4.050994   396A      4.051608  
     397A      4.052697   398A      4.075526   399A      4.078299  
     400A      4.105919   401A      4.108969   402A      4.126981  
     403A      4.131005   404A      4.137814   405A      4.161647  
     406A      4.164480   407A      4.180606   408A      4.190825  
     409A      4.201855   410A      4.267739   411A      4.267986  
     412A      4.297127   413A      4.300049   414A      4.330766  
     415A      4.342737   416A      4.346699   417A      4.350574  
     418A      4.373481   419A      4.391918   420A      4.418935  
     421A      4.421388   422A      4.431642   423A      4.432743  
     424A      4.442374   425A      4.448765   426A      4.448926  
     427A      4.465725   428A      4.473057   429A      4.488012  
     430A      4.501863   431A      4.505321   432A      4.510058  
     433A      4.525832   434A      4.562493   435A      4.594182  
     436A      4.605817   437A      4.687436   438A      4.695777  
     439A      4.710572   440A      4.721298   441A      4.727987  
     442A      4.742872   443A      4.782463   444A      4.789016  
     445A      4.790789   446A      4.799010   447A      4.836687  
     448A      4.877276   449A      4.879993   450A      4.926850  
     451A      4.945825   452A      4.962624   453A      5.004968  
     454A      5.027989   455A      5.042998   456A      5.076588  
     457A      5.083132   458A      5.099217   459A      5.111464  
     460A      5.119416   461A      5.134135   462A      5.146422  
     463A      5.161063   464A      5.175829   465A      5.176544  
     466A      5.181727   467A      5.182745   468A      5.205317  
     469A      5.234658   470A      5.238096   471A      5.337185  
     472A      5.339557   473A      5.347468   474A      5.400116  
     475A      5.434727   476A      5.435139   477A      5.437844  
     478A      5.445704   479A      5.525777   480A      5.545202  
     481A      5.639759   482A      5.746286   483A      5.771761  
     484A      5.787863   485A      5.790141   486A      5.851124  
     487A      5.879117   488A      5.979054   489A      6.005429  
     490A      6.197482   491A      6.230997   492A      6.264818  
     493A      6.266455   494A      6.372891   495A      6.390892  
     496A      6.393467   497A      6.648924   498A      6.668137  
     499A      6.866642   500A      6.879231   501A      7.022595  
     502A      7.223273   503A      7.436679   504A      8.089871  
     505A     16.052015   506A     16.058228   507A     18.178602  
     508A     19.430833   509A     19.569425   510A     19.594319  

    Final Occupation by Irrep:
              A 
    DOCC [    30 ]

  @DF-RHF Final Energy:  -629.49351720026561

   => Energetics <=

    Nuclear Repulsion Energy =            317.4136957505329519
    One-Electron Energy =               -1491.9701211059086745
    Two-Electron Energy =                 545.0629081551101081
    Total Energy =                       -629.4935172002656145

Computation Completed


Properties will be evaluated at   0.000000,   0.000000,   0.000000 [a0]

Properties computed using the SCF density matrix

  Nuclear Dipole Moment: [e a0]
     X:     0.0000      Y:    -0.0000      Z:     3.0679

  Electronic Dipole Moment: [e a0]
     X:    -0.0000      Y:     0.0000      Z:    -2.4353

  Dipole Moment: [e a0]
     X:    -0.0000      Y:     0.0000      Z:     0.6326     Total:     0.6326

  Dipole Moment: [D]
     X:    -0.0000      Y:     0.0000      Z:     1.6079     Total:     1.6079


*** tstop() called on node51.bme.utexas.edu at Tue Sep 10 11:12:46 2019
Module time:
	user time   =     128.53 seconds =       2.14 minutes
	system time =       5.08 seconds =       0.08 minutes
	total time  =         38 seconds =       0.63 minutes
Total time:
	user time   =     128.53 seconds =       2.14 minutes
	system time =       5.08 seconds =       0.08 minutes
	total time  =         38 seconds =       0.63 minutes

  //>>>>>>>>>>>>>>>>>>>>>>>>>>>>>>>>>>>//
  //            Monomer A HF           //
  //<<<<<<<<<<<<<<<<<<<<<<<<<<<<<<<<<<<//


*** tstart() called on node51.bme.utexas.edu
*** at Tue Sep 10 11:12:46 2019

   => Loading Basis Set <=

    Name: AUG-CC-PVTZ
    Role: ORBITAL
    Keyword: BASIS
    atoms 1-6         entry C          line   235 file /home/xy3866/psi4conda/share/psi4/basis/aug-cc-pvtz.gbs 
    atoms 7-12, 14-15 entry H          line    36 file /home/xy3866/psi4conda/share/psi4/basis/aug-cc-pvtz.gbs 
    atoms 13          entry S          line   902 file /home/xy3866/psi4conda/share/psi4/basis/aug-cc-pvtz.gbs 


         ---------------------------------------------------------
                                   SCF
               by Justin Turney, Rob Parrish, Andy Simmonett
                          and Daniel G. A. Smith
                              RHF Reference
                        4 Threads,  30517 MiB Core
         ---------------------------------------------------------

  ==> Geometry <==

    Molecular point group: c1
    Full point group: C2v

    Geometry (in Angstrom), charge = 0, multiplicity = 1:

       Center              X                  Y                   Z               Mass       
    ------------   -----------------  -----------------  -----------------  -----------------
         C            0.000000000000    -1.393658000000     1.122759518766    12.000000000000
         C            1.207737000000    -0.696816000000     1.121534518766    12.000000000000
         C            1.207737000000     0.696816000000     1.121534518766    12.000000000000
         C            0.000000000000     1.393658000000     1.122759518766    12.000000000000
         C           -1.207737000000     0.696816000000     1.121534518766    12.000000000000
         C           -1.207737000000    -0.696816000000     1.121534518766    12.000000000000
         H            0.000000000000    -2.475320000000     1.128033518766     1.007825032230
         H            2.144314000000    -1.237314000000     1.120635518766     1.007825032230
         H            2.144314000000     1.237314000000     1.120635518766     1.007825032230
         H            0.000000000000     2.475320000000     1.128033518766     1.007825032230
         H           -2.144314000000     1.237314000000     1.120635518766     1.007825032230
         H           -2.144314000000    -1.237314000000     1.120635518766     1.007825032230
      Gh(S)           0.000000000000     0.000000000000    -2.632068481234    31.972071174400
      Gh(H)           0.000000000000     0.954437000000    -1.696000481234     1.007825032230
      Gh(H)           0.000000000000    -0.954437000000    -1.696000481234     1.007825032230

  Running in c1 symmetry.

  Rotational constants: A =      0.09427  B =      0.04071  C =      0.04054 [cm^-1]
  Rotational constants: A =   2826.03195  B =   1220.42223  C =   1215.34765 [MHz]
  Nuclear repulsion =  203.653891607934128

  Charge       = 0
  Multiplicity = 1
  Electrons    = 42
  Nalpha       = 21
  Nbeta        = 21

  ==> Algorithm <==

  SCF Algorithm Type is DF.
  DIIS enabled.
  MOM disabled.
  Fractional occupation disabled.
  Guess Type is SAD.
  Energy threshold   = 1.00e-08
  Density threshold  = 1.00e-08
  Integral threshold = 0.00e+00

  ==> Primary Basis <==

  Basis Set: AUG-CC-PVTZ
    Blend: AUG-CC-PVTZ
    Number of shells: 172
    Number of basis function: 510
    Number of Cartesian functions: 589
    Spherical Harmonics?: true
    Max angular momentum: 3

   => Loading Basis Set <=

    Name: (AUG-CC-PVTZ AUX)
    Role: JKFIT
    Keyword: DF_BASIS_SCF
    atoms 1-6         entry C          line   162 file /home/xy3866/psi4conda/share/psi4/basis/aug-cc-pvtz-jkfit.gbs 
    atoms 7-12, 14-15 entry H          line    70 file /home/xy3866/psi4conda/share/psi4/basis/aug-cc-pvtz-jkfit.gbs 
    atoms 13          entry S          line   730 file /home/xy3866/psi4conda/share/psi4/basis/aug-cc-pvtz-jkfit.gbs 

  ==> Pre-Iterations <==

   -------------------------------------------------------
    Irrep   Nso     Nmo     Nalpha   Nbeta   Ndocc  Nsocc
   -------------------------------------------------------
     A        510     510       0       0       0       0
   -------------------------------------------------------
    Total     510     510      21      21      21       0
   -------------------------------------------------------

  ==> Integral Setup <==

  ==> DiskDFJK: Density-Fitted J/K Matrices <==

    J tasked:                  Yes
    K tasked:                  Yes
    wK tasked:                  No
    OpenMP threads:              4
    Integrals threads:           4
    Memory [MiB]:            22888
    Algorithm:                Core
    Integral Cache:           LOAD
    Schwarz Cutoff:          1E-12
    Fitting Condition:       1E-10

   => Auxiliary Basis Set <=

  Basis Set: (AUG-CC-PVTZ AUX)
    Blend: AUG-CC-PVTZ-JKFIT
    Number of shells: 334
    Number of basis function: 1138
    Number of Cartesian functions: 1406
    Spherical Harmonics?: true
    Max angular momentum: 4

  Minimum eigenvalue in the overlap matrix is 2.6434894164E-07.
  Using Symmetric Orthogonalization.

  SCF Guess: Superposition of Atomic Densities via on-the-fly atomic UHF.

  ==> Iterations <==

                           Total Energy        Delta E     RMS |[F,P]|

   @DF-RHF iter SAD:  -230.19001561588766   -2.30190e+02   0.00000e+00 
   @DF-RHF iter   1:  -230.60092272650596   -4.10907e-01   1.07224e-03 DIIS
   @DF-RHF iter   2:  -230.74288862501635   -1.41966e-01   5.31613e-04 DIIS
   @DF-RHF iter   3:  -230.77976442378252   -3.68758e-02   8.49880e-05 DIIS
   @DF-RHF iter   4:  -230.78131243680372   -1.54801e-03   1.05031e-05 DIIS
   @DF-RHF iter   5:  -230.78134135784671   -2.89210e-05   1.91417e-06 DIIS
   @DF-RHF iter   6:  -230.78134238065320   -1.02281e-06   2.18485e-07 DIIS
   @DF-RHF iter   7:  -230.78134239640340   -1.57502e-08   3.43337e-08 DIIS
   @DF-RHF iter   8:  -230.78134239672210   -3.18693e-10   1.46704e-08 DIIS
   @DF-RHF iter   9:  -230.78134239676407   -4.19789e-11   2.99485e-09 DIIS
  Energy and wave function converged.


  ==> Post-Iterations <==

    Orbital Energies [Eh]
    ---------------------

    Doubly Occupied:                                                      

       1A    -11.236365     2A    -11.235820     3A    -11.235756  
       4A    -11.234577     5A    -11.234510     6A    -11.233936  
       7A     -1.150196     8A     -1.014912     9A     -1.014530  
      10A     -0.824198    11A     -0.824032    12A     -0.709612  
      13A     -0.644243    14A     -0.619036    15A     -0.588280  
      16A     -0.587875    17A     -0.502283    18A     -0.494960  
      19A     -0.494867    20A     -0.336884    21A     -0.336604  

    Virtual:                                                              

      22A      0.027575    23A      0.034526    24A      0.034631  
      25A      0.042434    26A      0.048011    27A      0.048036  
      28A      0.060716    29A      0.064498    30A      0.091574  
      31A      0.097728    32A      0.102346    33A      0.102681  
      34A      0.106418    35A      0.111165    36A      0.113459  
      37A      0.122487    38A      0.124123    39A      0.126771  
      40A      0.127729    41A      0.127834    42A      0.130352  
      43A      0.136670    44A      0.151026    45A      0.154413  
      46A      0.155589    47A      0.157379    48A      0.158151  
      49A      0.158282    50A      0.160421    51A      0.166494  
      52A      0.167802    53A      0.187288    54A      0.231202  
      55A      0.244076    56A      0.245374    57A      0.245390  
      58A      0.253524    59A      0.253570    60A      0.286139  
      61A      0.288046    62A      0.289797    63A      0.298624  
      64A      0.298838    65A      0.301090    66A      0.309076  
      67A      0.312736    68A      0.317628    69A      0.323914  
      70A      0.326209    71A      0.330779    72A      0.339816  
      73A      0.341942    74A      0.344559    75A      0.348452  
      76A      0.349275    77A      0.357580    78A      0.359669  
      79A      0.365273    80A      0.367601    81A      0.377955  
      82A      0.386340    83A      0.391856    84A      0.396122  
      85A      0.396794    86A      0.400079    87A      0.413729  
      88A      0.440725    89A      0.443415    90A      0.455477  
      91A      0.456001    92A      0.456169    93A      0.456269  
      94A      0.473035    95A      0.473964    96A      0.481725  
      97A      0.482854    98A      0.487036    99A      0.495029  
     100A      0.501471   101A      0.502572   102A      0.503985  
     103A      0.514324   104A      0.523404   105A      0.525949  
     106A      0.528516   107A      0.534091   108A      0.535783  
     109A      0.546458   110A      0.552210   111A      0.556550  
     112A      0.559263   113A      0.563823   114A      0.569747  
     115A      0.589057   116A      0.612186   117A      0.618897  
     118A      0.627926   119A      0.639517   120A      0.653711  
     121A      0.654891   122A      0.658566   123A      0.658913  
     124A      0.660563   125A      0.664481   126A      0.677697  
     127A      0.678390   128A      0.703200   129A      0.709510  
     130A      0.710746   131A      0.710985   132A      0.734440  
     133A      0.748496   134A      0.748840   135A      0.750249  
     136A      0.773322   137A      0.777073   138A      0.796540  
     139A      0.797993   140A      0.803420   141A      0.809216  
     142A      0.818302   143A      0.827218   144A      0.836930  
     145A      0.851816   146A      0.865148   147A      0.867132  
     148A      0.873198   149A      0.877242   150A      0.891890  
     151A      0.893232   152A      0.901010   153A      0.901512  
     154A      0.906361   155A      0.910107   156A      0.920890  
     157A      0.930774   158A      0.933180   159A      0.949455  
     160A      0.954081   161A      0.983488   162A      0.983631  
     163A      0.989317   164A      0.999755   165A      1.015155  
     166A      1.024631   167A      1.032771   168A      1.041022  
     169A      1.049808   170A      1.050798   171A      1.065974  
     172A      1.067847   173A      1.070376   174A      1.085267  
     175A      1.086463   176A      1.092384   177A      1.100027  
     178A      1.102847   179A      1.112006   180A      1.112395  
     181A      1.113073   182A      1.127868   183A      1.132937  
     184A      1.134923   185A      1.139736   186A      1.142007  
     187A      1.149539   188A      1.149998   189A      1.154063  
     190A      1.162335   191A      1.170681   192A      1.179664  
     193A      1.181230   194A      1.190127   195A      1.200543  
     196A      1.207823   197A      1.213576   198A      1.216426  
     199A      1.226663   200A      1.229126   201A      1.237206  
     202A      1.238995   203A      1.251040   204A      1.268878  
     205A      1.269055   206A      1.273100   207A      1.291093  
     208A      1.295306   209A      1.306882   210A      1.307393  
     211A      1.324428   212A      1.338562   213A      1.345365  
     214A      1.358421   215A      1.364013   216A      1.370298  
     217A      1.376381   218A      1.387416   219A      1.398544  
     220A      1.400716   221A      1.406287   222A      1.419230  
     223A      1.440918   224A      1.445704   225A      1.447506  
     226A      1.462680   227A      1.470004   228A      1.485938  
     229A      1.486294   230A      1.489797   231A      1.518686  
     232A      1.527227   233A      1.546426   234A      1.553296  
     235A      1.553336   236A      1.565762   237A      1.569794  
     238A      1.572548   239A      1.608077   240A      1.609842  
     241A      1.653107   242A      1.665844   243A      1.702204  
     244A      1.707849   245A      1.714296   246A      1.727712  
     247A      1.732134   248A      1.734483   249A      1.760971  
     250A      1.763705   251A      1.765545   252A      1.776218  
     253A      1.797490   254A      1.801316   255A      1.817925  
     256A      1.838191   257A      1.844859   258A      1.853366  
     259A      1.859044   260A      1.880251   261A      1.888917  
     262A      1.920155   263A      1.923151   264A      1.941659  
     265A      1.962362   266A      1.978970   267A      1.982988  
     268A      1.991364   269A      1.993524   270A      2.000490  
     271A      2.027645   272A      2.028055   273A      2.042139  
     274A      2.048640   275A      2.054527   276A      2.059412  
     277A      2.077729   278A      2.079659   279A      2.092293  
     280A      2.092331   281A      2.098994   282A      2.100642  
     283A      2.136844   284A      2.148008   285A      2.150624  
     286A      2.159626   287A      2.200623   288A      2.220905  
     289A      2.257520   290A      2.279711   291A      2.282226  
     292A      2.287185   293A      2.333556   294A      2.341768  
     295A      2.352478   296A      2.363590   297A      2.377352  
     298A      2.379908   299A      2.391619   300A      2.412125  
     301A      2.465973   302A      2.467576   303A      2.488730  
     304A      2.518876   305A      2.525494   306A      2.531141  
     307A      2.569051   308A      2.580892   309A      2.596016  
     310A      2.603997   311A      2.607130   312A      2.750063  
     313A      2.754769   314A      2.765222   315A      2.794125  
     316A      2.846714   317A      2.848470   318A      2.905040  
     319A      2.972444   320A      3.003232   321A      3.039003  
     322A      3.093578   323A      3.096470   324A      3.107470  
     325A      3.132560   326A      3.140421   327A      3.223990  
     328A      3.229852   329A      3.246836   330A      3.283013  
     331A      3.287370   332A      3.296155   333A      3.330735  
     334A      3.334428   335A      3.346087   336A      3.367917  
     337A      3.382040   338A      3.383034   339A      3.402114  
     340A      3.406470   341A      3.409446   342A      3.414719  
     343A      3.453637   344A      3.470733   345A      3.472778  
     346A      3.486602   347A      3.492165   348A      3.541467  
     349A      3.542522   350A      3.553980   351A      3.561648  
     352A      3.566700   353A      3.604079   354A      3.629482  
     355A      3.636529   356A      3.647836   357A      3.657476  
     358A      3.659606   359A      3.661338   360A      3.676402  
     361A      3.695216   362A      3.696757   363A      3.717108  
     364A      3.741724   365A      3.762116   366A      3.766871  
     367A      3.811328   368A      3.830501   369A      3.833378  
     370A      3.837758   371A      3.839393   372A      3.841170  
     373A      3.844944   374A      3.856101   375A      3.912730  
     376A      3.915214   377A      3.921585   378A      3.939719  
     379A      3.960184   380A      3.981238   381A      3.982452  
     382A      3.995052   383A      4.000535   384A      4.005273  
     385A      4.020532   386A      4.054112   387A      4.059221  
     388A      4.064537   389A      4.068871   390A      4.108989  
     391A      4.115115   392A      4.134937   393A      4.137659  
     394A      4.138564   395A      4.150574   396A      4.172392  
     397A      4.210454   398A      4.215923   399A      4.268859  
     400A      4.297802   401A      4.305814   402A      4.334281  
     403A      4.338977   404A      4.360019   405A      4.369060  
     406A      4.372270   407A      4.374637   408A      4.382093  
     409A      4.399345   410A      4.406639   411A      4.429120  
     412A      4.445322   413A      4.447343   414A      4.450777  
     415A      4.455623   416A      4.474937   417A      4.479289  
     418A      4.482154   419A      4.503629   420A      4.511294  
     421A      4.513335   422A      4.590997   423A      4.605568  
     424A      4.662006   425A      4.703468   426A      4.715738  
     427A      4.727955   428A      4.728243   429A      4.733695  
     430A      4.770070   431A      4.785581   432A      4.798888  
     433A      4.806799   434A      4.842338   435A      4.873762  
     436A      4.886352   437A      4.886860   438A      4.888324  
     439A      4.907998   440A      4.938289   441A      4.953832  
     442A      5.035778   443A      5.040031   444A      5.058394  
     445A      5.084693   446A      5.094673   447A      5.113725  
     448A      5.119232   449A      5.133194   450A      5.137812  
     451A      5.144068   452A      5.166018   453A      5.168697  
     454A      5.183219   455A      5.184941   456A      5.193360  
     457A      5.197380   458A      5.206136   459A      5.231955  
     460A      5.243331   461A      5.258308   462A      5.318750  
     463A      5.343135   464A      5.346344   465A      5.352716  
     466A      5.358929   467A      5.421579   468A      5.442530  
     469A      5.443566   470A      5.445844   471A      5.454776  
     472A      5.535589   473A      5.553524   474A      5.721435  
     475A      5.754335   476A      5.778336   477A      5.795543  
     478A      5.798806   479A      5.858642   480A      5.887514  
     481A      5.965270   482A      5.986975   483A      6.013842  
     484A      6.206318   485A      6.240996   486A      6.272704  
     487A      6.274381   488A      6.380938   489A      6.398920  
     490A      6.401186   491A      6.657018   492A      6.676174  
     493A      6.826617   494A      6.865139   495A      6.883960  
     496A      6.886864   497A      7.030742   498A      7.231443  
     499A      7.444747   500A     15.362837   501A     16.060070  
     502A     16.067996   503A     18.194328   504A     19.438875  
     505A     19.577755   506A     19.602825   507A     24.122792  
     508A     24.868102   509A     25.135062   510A    141.721575  

    Final Occupation by Irrep:
              A 
    DOCC [    21 ]

  @DF-RHF Final Energy:  -230.78134239676407

   => Energetics <=

    Nuclear Repulsion Energy =            203.6538916079341277
    One-Electron Energy =                -713.7635225639670580
    Two-Electron Energy =                 279.3282885592688558
    Total Energy =                       -230.7813423967640460

Computation Completed


Properties will be evaluated at   0.000000,   0.000000,   0.000000 [a0]

Properties computed using the SCF density matrix

  Nuclear Dipole Moment: [e a0]
     X:     0.0000      Y:    -0.0000      Z:    89.0601

  Electronic Dipole Moment: [e a0]
     X:    -0.0000      Y:     0.0000      Z:   -89.0580

  Dipole Moment: [e a0]
     X:    -0.0000      Y:     0.0000      Z:     0.0021     Total:     0.0021

  Dipole Moment: [D]
     X:    -0.0000      Y:     0.0000      Z:     0.0052     Total:     0.0052


*** tstop() called on node51.bme.utexas.edu at Tue Sep 10 11:13:07 2019
Module time:
	user time   =      73.98 seconds =       1.23 minutes
	system time =       1.54 seconds =       0.03 minutes
	total time  =         21 seconds =       0.35 minutes
Total time:
	user time   =     202.53 seconds =       3.38 minutes
	system time =       6.63 seconds =       0.11 minutes
	total time  =         59 seconds =       0.98 minutes

  //>>>>>>>>>>>>>>>>>>>>>>>>>>>>>>>>>>>//
  //            Monomer B HF           //
  //<<<<<<<<<<<<<<<<<<<<<<<<<<<<<<<<<<<//


*** tstart() called on node51.bme.utexas.edu
*** at Tue Sep 10 11:13:07 2019

   => Loading Basis Set <=

    Name: AUG-CC-PVTZ
    Role: ORBITAL
    Keyword: BASIS
    atoms 1-6         entry C          line   235 file /home/xy3866/psi4conda/share/psi4/basis/aug-cc-pvtz.gbs 
    atoms 7-12, 14-15 entry H          line    36 file /home/xy3866/psi4conda/share/psi4/basis/aug-cc-pvtz.gbs 
    atoms 13          entry S          line   902 file /home/xy3866/psi4conda/share/psi4/basis/aug-cc-pvtz.gbs 


         ---------------------------------------------------------
                                   SCF
               by Justin Turney, Rob Parrish, Andy Simmonett
                          and Daniel G. A. Smith
                              RHF Reference
                        4 Threads,  30517 MiB Core
         ---------------------------------------------------------

  ==> Geometry <==

    Molecular point group: c1
    Full point group: C2v

    Geometry (in Angstrom), charge = 0, multiplicity = 1:

       Center              X                  Y                   Z               Mass       
    ------------   -----------------  -----------------  -----------------  -----------------
      Gh(C)           0.000000000000    -1.393658000000     1.122759518766    12.000000000000
      Gh(C)           1.207737000000    -0.696816000000     1.121534518766    12.000000000000
      Gh(C)           1.207737000000     0.696816000000     1.121534518766    12.000000000000
      Gh(C)           0.000000000000     1.393658000000     1.122759518766    12.000000000000
      Gh(C)          -1.207737000000     0.696816000000     1.121534518766    12.000000000000
      Gh(C)          -1.207737000000    -0.696816000000     1.121534518766    12.000000000000
      Gh(H)           0.000000000000    -2.475320000000     1.128033518766     1.007825032230
      Gh(H)           2.144314000000    -1.237314000000     1.120635518766     1.007825032230
      Gh(H)           2.144314000000     1.237314000000     1.120635518766     1.007825032230
      Gh(H)           0.000000000000     2.475320000000     1.128033518766     1.007825032230
      Gh(H)          -2.144314000000     1.237314000000     1.120635518766     1.007825032230
      Gh(H)          -2.144314000000    -1.237314000000     1.120635518766     1.007825032230
         S            0.000000000000     0.000000000000    -2.632068481234    31.972071174400
         H            0.000000000000     0.954437000000    -1.696000481234     1.007825032230
         H            0.000000000000    -0.954437000000    -1.696000481234     1.007825032230

  Running in c1 symmetry.

  Rotational constants: A =      0.09427  B =      0.04071  C =      0.04054 [cm^-1]
  Rotational constants: A =   2826.03195  B =   1220.42223  C =   1215.34765 [MHz]
  Nuclear repulsion =   12.944044801570227

  Charge       = 0
  Multiplicity = 1
  Electrons    = 18
  Nalpha       = 9
  Nbeta        = 9

  ==> Algorithm <==

  SCF Algorithm Type is DF.
  DIIS enabled.
  MOM disabled.
  Fractional occupation disabled.
  Guess Type is SAD.
  Energy threshold   = 1.00e-08
  Density threshold  = 1.00e-08
  Integral threshold = 0.00e+00

  ==> Primary Basis <==

  Basis Set: AUG-CC-PVTZ
    Blend: AUG-CC-PVTZ
    Number of shells: 172
    Number of basis function: 510
    Number of Cartesian functions: 589
    Spherical Harmonics?: true
    Max angular momentum: 3

   => Loading Basis Set <=

    Name: (AUG-CC-PVTZ AUX)
    Role: JKFIT
    Keyword: DF_BASIS_SCF
    atoms 1-6         entry C          line   162 file /home/xy3866/psi4conda/share/psi4/basis/aug-cc-pvtz-jkfit.gbs 
    atoms 7-12, 14-15 entry H          line    70 file /home/xy3866/psi4conda/share/psi4/basis/aug-cc-pvtz-jkfit.gbs 
    atoms 13          entry S          line   730 file /home/xy3866/psi4conda/share/psi4/basis/aug-cc-pvtz-jkfit.gbs 

  ==> Pre-Iterations <==

   -------------------------------------------------------
    Irrep   Nso     Nmo     Nalpha   Nbeta   Ndocc  Nsocc
   -------------------------------------------------------
     A        510     510       0       0       0       0
   -------------------------------------------------------
    Total     510     510       9       9       9       0
   -------------------------------------------------------

  ==> Integral Setup <==

  ==> DiskDFJK: Density-Fitted J/K Matrices <==

    J tasked:                  Yes
    K tasked:                  Yes
    wK tasked:                  No
    OpenMP threads:              4
    Integrals threads:           4
    Memory [MiB]:            22888
    Algorithm:                Core
    Integral Cache:           LOAD
    Schwarz Cutoff:          1E-12
    Fitting Condition:       1E-10

   => Auxiliary Basis Set <=

  Basis Set: (AUG-CC-PVTZ AUX)
    Blend: AUG-CC-PVTZ-JKFIT
    Number of shells: 334
    Number of basis function: 1138
    Number of Cartesian functions: 1406
    Spherical Harmonics?: true
    Max angular momentum: 4

  Minimum eigenvalue in the overlap matrix is 2.6434894164E-07.
  Using Symmetric Orthogonalization.

  SCF Guess: Superposition of Atomic Densities via on-the-fly atomic UHF.

  ==> Iterations <==

                           Total Energy        Delta E     RMS |[F,P]|

   @DF-RHF iter SAD:  -398.42061468481410   -3.98421e+02   0.00000e+00 
   @DF-RHF iter   1:  -398.67948610538866   -2.58871e-01   4.21456e-04 DIIS
   @DF-RHF iter   2:  -398.70926792932983   -2.97818e-02   1.59241e-04 DIIS
   @DF-RHF iter   3:  -398.71300035474053   -3.73243e-03   3.90859e-05 DIIS
   @DF-RHF iter   4:  -398.71370395837471   -7.03604e-04   7.72751e-06 DIIS
   @DF-RHF iter   5:  -398.71373378602198   -2.98276e-05   1.14510e-06 DIIS
   @DF-RHF iter   6:  -398.71373436706654   -5.81045e-07   2.92272e-07 DIIS
   @DF-RHF iter   7:  -398.71373440729872   -4.02322e-08   7.38417e-08 DIIS
   @DF-RHF iter   8:  -398.71373440986872   -2.57000e-09   1.31112e-08 DIIS
   @DF-RHF iter   9:  -398.71373440993051   -6.17888e-11   2.53856e-09 DIIS
  Energy and wave function converged.


  ==> Post-Iterations <==

    Orbital Energies [Eh]
    ---------------------

    Doubly Occupied:                                                      

       1A    -91.966968     2A     -8.969038     3A     -6.650310  
       4A     -6.649541     5A     -6.648239     6A     -0.982621  
       7A     -0.587477     8A     -0.503591     9A     -0.385512  

    Virtual:                                                              

      10A      0.016479    11A      0.029753    12A      0.031547  
      13A      0.044837    14A      0.047294    15A      0.047518  
      16A      0.059605    17A      0.064895    18A      0.070505  
      19A      0.087889    20A      0.089948    21A      0.091696  
      22A      0.100174    23A      0.103563    24A      0.116654  
      25A      0.120674    26A      0.120985    27A      0.123836  
      28A      0.124194    29A      0.125624    30A      0.127017  
      31A      0.143489    32A      0.146586    33A      0.152781  
      34A      0.156904    35A      0.156974    36A      0.160845  
      37A      0.164298    38A      0.166391    39A      0.169753  
      40A      0.181071    41A      0.191967    42A      0.206956  
      43A      0.214762    44A      0.217320    45A      0.225661  
      46A      0.232457    47A      0.242919    48A      0.253312  
      49A      0.266116    50A      0.274360    51A      0.283007  
      52A      0.294036    53A      0.294614    54A      0.301008  
      55A      0.314691    56A      0.317113    57A      0.318292  
      58A      0.322223    59A      0.326484    60A      0.330853  
      61A      0.332418    62A      0.343281    63A      0.353534  
      64A      0.356085    65A      0.358836    66A      0.360423  
      67A      0.361487    68A      0.373591    69A      0.376694  
      70A      0.379152    71A      0.385900    72A      0.396439  
      73A      0.400425    74A      0.401702    75A      0.421555  
      76A      0.423071    77A      0.424519    78A      0.434811  
      79A      0.436547    80A      0.436550    81A      0.456034  
      82A      0.457906    83A      0.462328    84A      0.480458  
      85A      0.483400    86A      0.489133    87A      0.500562  
      88A      0.501967    89A      0.509867    90A      0.516940  
      91A      0.530732    92A      0.533636    93A      0.540385  
      94A      0.548647    95A      0.554934    96A      0.561839  
      97A      0.576309    98A      0.582386    99A      0.585246  
     100A      0.585882   101A      0.617197   102A      0.617829  
     103A      0.621556   104A      0.622649   105A      0.623701  
     106A      0.629671   107A      0.650545   108A      0.651581  
     109A      0.652354   110A      0.667009   111A      0.667694  
     112A      0.674697   113A      0.677453   114A      0.685331  
     115A      0.693447   116A      0.699340   117A      0.701240  
     118A      0.705677   119A      0.710343   120A      0.718888  
     121A      0.720710   122A      0.727890   123A      0.740551  
     124A      0.747572   125A      0.750341   126A      0.763176  
     127A      0.763634   128A      0.787858   129A      0.789301  
     130A      0.795682   131A      0.796243   132A      0.807449  
     133A      0.813550   134A      0.817230   135A      0.847380  
     136A      0.858529   137A      0.860491   138A      0.863176  
     139A      0.883547   140A      0.889662   141A      0.895470  
     142A      0.905552   143A      0.923160   144A      0.923763  
     145A      0.932106   146A      0.964288   147A      0.967399  
     148A      0.981146   149A      0.993939   150A      1.006330  
     151A      1.016455   152A      1.024825   153A      1.025726  
     154A      1.028303   155A      1.041335   156A      1.059063  
     157A      1.062095   158A      1.064344   159A      1.066559  
     160A      1.078063   161A      1.083172   162A      1.099176  
     163A      1.106744   164A      1.114616   165A      1.123435  
     166A      1.129524   167A      1.135425   168A      1.145907  
     169A      1.157852   170A      1.159691   171A      1.178955  
     172A      1.185067   173A      1.186770   174A      1.190475  
     175A      1.198767   176A      1.202816   177A      1.207071  
     178A      1.223912   179A      1.226969   180A      1.240606  
     181A      1.250769   182A      1.252822   183A      1.270310  
     184A      1.271501   185A      1.272972   186A      1.290615  
     187A      1.294050   188A      1.296996   189A      1.303542  
     190A      1.307264   191A      1.308068   192A      1.311177  
     193A      1.313087   194A      1.314324   195A      1.314375  
     196A      1.333341   197A      1.335395   198A      1.366005  
     199A      1.374686   200A      1.376085   201A      1.378483  
     202A      1.389001   203A      1.406019   204A      1.409365  
     205A      1.409984   206A      1.430336   207A      1.449609  
     208A      1.465588   209A      1.475607   210A      1.501546  
     211A      1.512066   212A      1.531686   213A      1.544541  
     214A      1.545436   215A      1.548421   216A      1.555018  
     217A      1.556365   218A      1.569970   219A      1.573153  
     220A      1.574918   221A      1.579323   222A      1.579615  
     223A      1.583339   224A      1.612815   225A      1.618202  
     226A      1.623665   227A      1.643646   228A      1.666375  
     229A      1.673756   230A      1.675428   231A      1.687422  
     232A      1.688872   233A      1.693033   234A      1.695817  
     235A      1.729785   236A      1.736190   237A      1.745857  
     238A      1.782223   239A      1.811067   240A      1.824322  
     241A      1.851473   242A      1.856022   243A      1.877635  
     244A      1.878716   245A      1.881948   246A      1.889436  
     247A      1.898835   248A      1.899244   249A      1.904498  
     250A      1.941179   251A      1.982192   252A      1.991254  
     253A      2.007450   254A      2.019378   255A      2.019860  
     256A      2.052173   257A      2.090267   258A      2.100642  
     259A      2.127102   260A      2.151204   261A      2.153660  
     262A      2.157023   263A      2.170501   264A      2.172841  
     265A      2.173814   266A      2.185392   267A      2.205429  
     268A      2.217882   269A      2.220224   270A      2.244512  
     271A      2.255192   272A      2.264528   273A      2.293375  
     274A      2.308956   275A      2.323766   276A      2.323928  
     277A      2.339379   278A      2.339920   279A      2.345602  
     280A      2.354684   281A      2.362103   282A      2.373358  
     283A      2.380186   284A      2.384805   285A      2.398834  
     286A      2.401373   287A      2.401937   288A      2.411637  
     289A      2.447646   290A      2.483351   291A      2.497977  
     292A      2.500055   293A      2.501564   294A      2.514727  
     295A      2.517939   296A      2.526655   297A      2.528221  
     298A      2.534540   299A      2.541464   300A      2.545310  
     301A      2.550767   302A      2.555523   303A      2.610055  
     304A      2.611234   305A      2.642622   306A      2.674624  
     307A      2.689819   308A      2.733661   309A      2.752081  
     310A      2.758361   311A      2.789662   312A      2.806669  
     313A      2.820136   314A      2.834190   315A      2.863391  
     316A      2.876623   317A      2.880633   318A      2.900368  
     319A      2.924110   320A      2.995217   321A      3.036878  
     322A      3.093254   323A      3.127799   324A      3.128875  
     325A      3.133502   326A      3.282683   327A      3.290914  
     328A      3.317349   329A      3.487552   330A      3.490006  
     331A      3.564958   332A      3.607729   333A      3.741284  
     334A      3.781439   335A      3.822310   336A      3.847446  
     337A      3.900839   338A      3.937692   339A      3.939519  
     340A      3.977529   341A      3.988476   342A      4.003713  
     343A      4.006698   344A      4.035424   345A      4.047175  
     346A      4.056732   347A      4.069556   348A      4.102588  
     349A      4.117866   350A      4.126977   351A      4.135049  
     352A      4.155056   353A      4.158456   354A      4.158886  
     355A      4.162136   356A      4.204497   357A      4.211096  
     358A      4.223539   359A      4.234629   360A      4.250656  
     361A      4.259060   362A      4.264649   363A      4.280744  
     364A      4.289390   365A      4.300657   366A      4.324885  
     367A      4.338989   368A      4.354208   369A      4.375794  
     370A      4.406177   371A      4.427406   372A      4.440764  
     373A      4.465090   374A      4.471853   375A      4.477108  
     376A      4.494714   377A      4.507128   378A      4.548382  
     379A      4.556167   380A      4.556997   381A      4.560332  
     382A      4.573054   383A      4.574221   384A      4.589756  
     385A      4.594998   386A      4.595447   387A      4.596768  
     388A      4.603344   389A      4.637557   390A      4.644683  
     391A      4.699807   392A      4.718984   393A      4.724790  
     394A      4.727422   395A      4.769141   396A      4.797178  
     397A      4.816492   398A      4.840934   399A      4.845226  
     400A      4.848172   401A      4.887717   402A      4.958405  
     403A      4.973648   404A      4.974338   405A      4.979289  
     406A      4.990942   407A      5.028943   408A      5.055033  
     409A      5.055238   410A      5.103219   411A      5.105200  
     412A      5.106211   413A      5.117267   414A      5.152151  
     415A      5.161088   416A      5.172495   417A      5.179894  
     418A      5.195222   419A      5.211318   420A      5.212163  
     421A      5.215150   422A      5.271026   423A      5.287199  
     424A      5.403688   425A      5.412909   426A      5.435268  
     427A      5.446347   428A      5.452587   429A      5.491132  
     430A      5.497496   431A      5.498850   432A      5.521736  
     433A      5.616908   434A      5.621650   435A      5.628330  
     436A      5.660790   437A      5.687239   438A      5.688108  
     439A      5.728121   440A      5.728792   441A      5.730329  
     442A      5.730472   443A      5.792203   444A      5.793700  
     445A      5.794520   446A      5.800951   447A      5.819761  
     448A      5.837252   449A      5.910936   450A      5.959513  
     451A      5.965308   452A      5.997804   453A      6.004039  
     454A      6.128216   455A      6.128877   456A      6.166302  
     457A      6.188242   458A      6.193635   459A      6.194636  
     460A      6.206809   461A      6.431887   462A      6.432408  
     463A      6.462102   464A      6.491370   465A      6.517149  
     466A      6.702558   467A      6.785260   468A      6.816428  
     469A      6.882056   470A      6.888314   471A      7.035219  
     472A      7.062221   473A      7.067824   474A      7.113980  
     475A      7.151205   476A      7.152156   477A      7.174601  
     478A      7.391967   479A      7.477615   480A      7.500228  
     481A      7.573050   482A      7.654714   483A      7.664093  
     484A      7.784181   485A      7.887030   486A      8.002445  
     487A      8.078949   488A      8.188851   489A      8.194205  
     490A      8.205651   491A      8.324638   492A      8.326725  
     493A      8.960352   494A      8.963057   495A      9.360073  
     496A      9.385088   497A      9.485942   498A     10.041455  
     499A     10.043094   500A     10.979525   501A     11.032531  
     502A     11.330955   503A     11.358514   504A     11.379325  
     505A     49.672594   506A     49.680545   507A     52.210088  
     508A     55.521449   509A     55.837853   510A     56.638085  

    Final Occupation by Irrep:
              A 
    DOCC [     9 ]

  @DF-RHF Final Energy:  -398.71373440993051

   => Energetics <=

    Nuclear Repulsion Energy =             12.9440448015702270
    One-Electron Energy =                -576.6289635700361487
    Two-Electron Energy =                 164.9711843585353677
    Total Energy =                       -398.7137344099305096

Computation Completed


Properties will be evaluated at   0.000000,   0.000000,   0.000000 [a0]

Properties computed using the SCF density matrix

  Nuclear Dipole Moment: [e a0]
     X:     0.0000      Y:     0.0000      Z:   -85.9922

  Electronic Dipole Moment: [e a0]
     X:    -0.0000      Y:     0.0000      Z:    86.4195

  Dipole Moment: [e a0]
     X:    -0.0000      Y:     0.0000      Z:     0.4273     Total:     0.4273

  Dipole Moment: [D]
     X:    -0.0000      Y:     0.0000      Z:     1.0862     Total:     1.0862


*** tstop() called on node51.bme.utexas.edu at Tue Sep 10 11:13:26 2019
Module time:
	user time   =      67.30 seconds =       1.12 minutes
	system time =       1.30 seconds =       0.02 minutes
	total time  =         19 seconds =       0.32 minutes
Total time:
	user time   =     269.85 seconds =       4.50 minutes
	system time =       7.93 seconds =       0.13 minutes
	total time  =         78 seconds =       1.30 minutes
  Constructing Basis Sets for SAPT...

   => Loading Basis Set <=

    Name: (AUG-CC-PVTZ AUX)
    Role: RIFIT
    Keyword: DF_BASIS_SAPT
    atoms 1-6         entry C          line   148 file /home/xy3866/psi4conda/share/psi4/basis/aug-cc-pvtz-ri.gbs 
    atoms 7-12, 14-15 entry H          line    30 file /home/xy3866/psi4conda/share/psi4/basis/aug-cc-pvtz-ri.gbs 
    atoms 13          entry S          line   666 file /home/xy3866/psi4conda/share/psi4/basis/aug-cc-pvtz-ri.gbs 


  //>>>>>>>>>>>>>>>>>>>>>>>>>>>>>>>>>>>//
  //               SAPT2+              //
  //<<<<<<<<<<<<<<<<<<<<<<<<<<<<<<<<<<<//


*** tstart() called on node51.bme.utexas.edu
*** at Tue Sep 10 11:13:26 2019

        SAPT2+  
    Ed Hohenstein
     6 June 2009

      Orbital Information
  --------------------------
    NSO        =       510
    NMO        =       510
    NRI        =      1151
    NOCC A     =        21
    NOCC B     =         9
    FOCC A     =         6
    FOCC B     =         5
    NVIR A     =       489
    NVIR B     =       501

    Estimated memory usage: 4967.8 MB

    Natural Orbital Cutoff:   1.000E-06
    Disp(T3) Truncation:            Yes
    CCD (vv|vv) Truncation:         Yes
    MBPT T2 Truncation:             Yes

    Monomer A: 140 virtual orbitals dropped
    Monomer B: 414 virtual orbitals dropped

    Elst10,r            =    -0.004252986134 [Eh]
    Exch10 (S^2)        =     0.007220117822 [Eh]
    Exch10              =     0.007229283076 [Eh]
    Ind20,r (A<-B)      =    -0.001196048123 [Eh]
    Ind20,r (B<-A)      =    -0.000972692744 [Eh]
    Ind20,r             =    -0.002168740867 [Eh]
    Exch-Ind20,r (A<-B) =     0.000769199572 [Eh]
    Exch-Ind20,r (B<-A) =     0.000835165605 [Eh]
    Exch-Ind20,r        =     0.001604365177 [Eh]
    Disp20              =    -0.008768199393 [Eh]
    Disp20 (NO)         =    -0.008055597315 [Eh]
    Exch-Disp20         =     0.000964826048 [Eh]
    Elst12,r            =     0.000252501011 [Eh]
    Exch11              =     0.000516815054 [Eh]
    Exch12              =    -0.000297765064 [Eh]
    Ind22               =    -0.000084355606 [Eh]
    Disp21              =     0.001913300824 [Eh]
    Disp22 (SDQ)        =     0.000506857650 [Eh]

    (i =   1 of   4)        125 seconds
    (i =   2 of   4)        252 seconds
    (i =   3 of   4)        381 seconds
    (i =   4 of   4)        518 seconds

    Disp220 (T)         =    -0.000924464831 [Eh]

    (i =   1 of  15)          5 seconds
    (i =   2 of  15)         11 seconds
    (i =   3 of  15)         17 seconds
    (i =   4 of  15)         23 seconds
    (i =   5 of  15)         29 seconds
    (i =   6 of  15)         34 seconds
    (i =   7 of  15)         40 seconds
    (i =   8 of  15)         46 seconds
    (i =   9 of  15)         52 seconds
    (i =  10 of  15)         58 seconds
    (i =  11 of  15)         63 seconds
    (i =  12 of  15)         69 seconds
    (i =  13 of  15)         75 seconds
    (i =  14 of  15)         81 seconds
    (i =  15 of  15)         86 seconds

    Disp202 (T)         =    -0.000650872437 [Eh]

    Disp22 (T)          =    -0.001575337268 [Eh]

    Est. Disp220 (T)    =    -0.001006243442 [Eh]
    Est. Disp202 (T)    =    -0.000708448932 [Eh]

    Est. Disp22 (T)     =    -0.001714692373 [Eh]

    SAPT Results 
  --------------------------------------------------------------------------------------------------------
    Electrostatics                 -4.00048512 [mEh]      -2.51034231 [kcal/mol]     -10.50327224 [kJ/mol]
      Elst10,r                     -4.25298613 [mEh]      -2.66878909 [kcal/mol]     -11.16621356 [kJ/mol]
      Elst12,r                      0.25250101 [mEh]       0.15844678 [kcal/mol]       0.66294131 [kJ/mol]

    Exchange                        7.44833307 [mEh]       4.67389956 [kcal/mol]      19.55559577 [kJ/mol]
      Exch10                        7.22928308 [mEh]       4.53644362 [kcal/mol]      18.98048010 [kJ/mol]
      Exch10(S^2)                   7.22011782 [mEh]       4.53069234 [kcal/mol]      18.95641673 [kJ/mol]
      Exch11(S^2)                   0.51681505 [mEh]       0.32430634 [kcal/mol]       1.35689774 [kJ/mol]
      Exch12(S^2)                  -0.29776506 [mEh]      -0.18685040 [kcal/mol]      -0.78178207 [kJ/mol]

    Induction                      -1.43864254 [mEh]      -0.90276182 [kcal/mol]      -3.77715546 [kJ/mol]
      Ind20,r                      -2.16874087 [mEh]      -1.36090544 [kcal/mol]      -5.69402836 [kJ/mol]
      Ind22                        -0.08435561 [mEh]      -0.05293394 [kcal/mol]      -0.22147561 [kJ/mol]
      Exch-Ind20,r                  1.60436518 [mEh]       1.00675435 [kcal/mol]       4.21226019 [kJ/mol]
      Exch-Ind22                    0.06240358 [mEh]       0.03915884 [kcal/mol]       0.16384058 [kJ/mol]
      delta HF,r (2)               -0.85231482 [mEh]      -0.53483563 [kcal/mol]      -2.23775226 [kJ/mol]

    Dispersion                     -7.09790724 [mEh]      -4.45400404 [kcal/mol]     -18.63555290 [kJ/mol]
      Disp20                       -8.76819939 [mEh]      -5.50212819 [kcal/mol]     -23.02090434 [kJ/mol]
      Disp21                        1.91330082 [mEh]       1.20061439 [kcal/mol]       5.02337062 [kJ/mol]
      Disp22 (SDQ)                  0.50685765 [mEh]       0.31805798 [kcal/mol]       1.33075458 [kJ/mol]
      Disp22 (T)                   -1.57533727 [mEh]      -0.98853906 [kcal/mol]      -4.13604743 [kJ/mol]
      Est. Disp22 (T)              -1.71469237 [mEh]      -1.07598571 [kcal/mol]      -4.50192421 [kJ/mol]
      Exch-Disp20                   0.96482605 [mEh]       0.60543749 [kcal/mol]       2.53315044 [kJ/mol]

  Total HF                          1.55960643 [mEh]       0.97866781 [kcal/mol]       4.09474612 [kJ/mol]
  Total SAPT0                      -6.24376692 [mEh]      -3.91802289 [kcal/mol]     -16.39300778 [kJ/mol]
  Total SAPT2                      -5.79416794 [mEh]      -3.63589528 [kcal/mol]     -15.21258583 [kJ/mol]
  Total SAPT2+                     -5.08870184 [mEh]      -3.19320861 [kcal/mol]     -13.36038484 [kJ/mol]

  Special recipe for scaled SAPT0 (see Manual):
    Electrostatics sSAPT0          -4.25298613 [mEh]      -2.66878909 [kcal/mol]     -11.16621356 [kJ/mol]
    Exchange sSAPT0                 7.22928308 [mEh]       4.53644362 [kcal/mol]      18.98048010 [kJ/mol]
    Induction sSAPT0               -1.41057299 [mEh]      -0.88514791 [kcal/mol]      -3.70345886 [kJ/mol]
    Dispersion sSAPT0              -7.79969441 [mEh]      -4.89438214 [kcal/mol]     -20.47809486 [kJ/mol]
  Total sSAPT0                     -6.23397046 [mEh]      -3.91187552 [kcal/mol]     -16.36728718 [kJ/mol]
  --------------------------------------------------------------------------------------------------------

*** tstop() called on node51.bme.utexas.edu at Tue Sep 10 11:40:32 2019
Module time:
	user time   =    5564.50 seconds =      92.74 minutes
	system time =     150.31 seconds =       2.51 minutes
	total time  =       1626 seconds =      27.10 minutes
Total time:
	user time   =    5834.56 seconds =      97.24 minutes
	system time =     158.24 seconds =       2.64 minutes
	total time  =       1704 seconds =      28.40 minutes

    Psi4 stopped on: Tuesday, 10 September 2019 11:40AM
    Psi4 wall time for execution: 0:28:24.53

*** Psi4 exiting successfully. Buy a developer a beer!
