
    -----------------------------------------------------------------------
          Psi4: An Open-Source Ab Initio Electronic Structure Package
                               Psi4 1.3.2 release

                         Git: Rev {HEAD} ecbda83 


    R. M. Parrish, L. A. Burns, D. G. A. Smith, A. C. Simmonett,
    A. E. DePrince III, E. G. Hohenstein, U. Bozkaya, A. Yu. Sokolov,
    R. Di Remigio, R. M. Richard, J. F. Gonthier, A. M. James,
    H. R. McAlexander, A. Kumar, M. Saitow, X. Wang, B. P. Pritchard,
    P. Verma, H. F. Schaefer III, K. Patkowski, R. A. King, E. F. Valeev,
    F. A. Evangelista, J. M. Turney, T. D. Crawford, and C. D. Sherrill,
    J. Chem. Theory Comput. 13(7) pp 3185--3197 (2017).
    (doi: 10.1021/acs.jctc.7b00174)


                         Additional Contributions by
    P. Kraus, H. Kruse, M. H. Lechner, M. C. Schieber, R. A. Shaw,
    A. Alenaizan, R. Galvelis, Z. L. Glick, S. Lehtola, and J. P. Misiewicz

    -----------------------------------------------------------------------


    Psi4 started on: Tuesday, 10 September 2019 11:40AM

    Process ID: 45725
    Host:       node51.bme.utexas.edu
    PSIDATADIR: /home/xy3866/psi4conda/share/psi4
    Memory:     500.0 MiB
    Threads:    4
    
  ==> Input File <==

--------------------------------------------------------------------------
#psi4
#
memory 32 gb

molecule  {
0 1
  C        0.0000000    -1.3936580     1.0640200
  C        1.2077370    -0.6968160     1.0627950
  C        1.2077370     0.6968160     1.0627950
  C        0.0000000     1.3936580     1.0640200
  C       -1.2077370     0.6968160     1.0627950
  C       -1.2077370    -0.6968160     1.0627950
  H        0.0000000    -2.4753200     1.0692940
  H        2.1443140    -1.2373140     1.0618960
  H        2.1443140     1.2373140     1.0618960
  H        0.0000000     2.4753200     1.0692940
  H       -2.1443140     1.2373140     1.0618960
  H       -2.1443140    -1.2373140     1.0618960
--
0 1
  S        0.0000000    -0.0000000    -3.0662091
  H        0.0000000     0.9544370    -2.1301411
  H        0.0000000    -0.9544370    -2.1301411
units angstrom
no_reorient  #important for SAPT in psi4, default
symmetry c1  #important for SAPT in psi4, default
}

set {
basis aug-cc-pVTZ
scf_type DF
freeze_core True
}
energy('sapt2+')
--------------------------------------------------------------------------

  Memory set to  29.802 GiB by Python driver.

  //>>>>>>>>>>>>>>>>>>>>>>>>>>>>>>>>>>>//
  //              Dimer HF             //
  //<<<<<<<<<<<<<<<<<<<<<<<<<<<<<<<<<<<//


*** tstart() called on node51.bme.utexas.edu
*** at Tue Sep 10 11:40:46 2019

   => Loading Basis Set <=

    Name: AUG-CC-PVTZ
    Role: ORBITAL
    Keyword: BASIS
    atoms 1-6         entry C          line   235 file /home/xy3866/psi4conda/share/psi4/basis/aug-cc-pvtz.gbs 
    atoms 7-12, 14-15 entry H          line    36 file /home/xy3866/psi4conda/share/psi4/basis/aug-cc-pvtz.gbs 
    atoms 13          entry S          line   902 file /home/xy3866/psi4conda/share/psi4/basis/aug-cc-pvtz.gbs 


         ---------------------------------------------------------
                                   SCF
               by Justin Turney, Rob Parrish, Andy Simmonett
                          and Daniel G. A. Smith
                              RHF Reference
                        4 Threads,  30517 MiB Core
         ---------------------------------------------------------

  ==> Geometry <==

    Molecular point group: c1
    Full point group: C2v

    Geometry (in Angstrom), charge = 0, multiplicity = 1:

       Center              X                  Y                   Z               Mass       
    ------------   -----------------  -----------------  -----------------  -----------------
         C            0.000000000000    -1.393658000000     1.236644156231    12.000000000000
         C            1.207737000000    -0.696816000000     1.235419156231    12.000000000000
         C            1.207737000000     0.696816000000     1.235419156231    12.000000000000
         C            0.000000000000     1.393658000000     1.236644156231    12.000000000000
         C           -1.207737000000     0.696816000000     1.235419156231    12.000000000000
         C           -1.207737000000    -0.696816000000     1.235419156231    12.000000000000
         H            0.000000000000    -2.475320000000     1.241918156231     1.007825032230
         H            2.144314000000    -1.237314000000     1.234520156231     1.007825032230
         H            2.144314000000     1.237314000000     1.234520156231     1.007825032230
         H            0.000000000000     2.475320000000     1.241918156231     1.007825032230
         H           -2.144314000000     1.237314000000     1.234520156231     1.007825032230
         H           -2.144314000000    -1.237314000000     1.234520156231     1.007825032230
         S            0.000000000000     0.000000000000    -2.893584943769    31.972071174400
         H            0.000000000000     0.954437000000    -1.957516943769     1.007825032230
         H            0.000000000000    -0.954437000000    -1.957516943769     1.007825032230

  Running in c1 symmetry.

  Rotational constants: A =      0.09427  B =      0.03489  C =      0.03476 [cm^-1]
  Rotational constants: A =   2826.03195  B =   1045.92811  C =   1042.19869 [MHz]
  Nuclear repulsion =  309.264444580084728

  Charge       = 0
  Multiplicity = 1
  Electrons    = 60
  Nalpha       = 30
  Nbeta        = 30

  ==> Algorithm <==

  SCF Algorithm Type is DF.
  DIIS enabled.
  MOM disabled.
  Fractional occupation disabled.
  Guess Type is SAD.
  Energy threshold   = 1.00e-08
  Density threshold  = 1.00e-08
  Integral threshold = 0.00e+00

  ==> Primary Basis <==

  Basis Set: AUG-CC-PVTZ
    Blend: AUG-CC-PVTZ
    Number of shells: 172
    Number of basis function: 510
    Number of Cartesian functions: 589
    Spherical Harmonics?: true
    Max angular momentum: 3

   => Loading Basis Set <=

    Name: (AUG-CC-PVTZ AUX)
    Role: JKFIT
    Keyword: DF_BASIS_SCF
    atoms 1-6         entry C          line   162 file /home/xy3866/psi4conda/share/psi4/basis/aug-cc-pvtz-jkfit.gbs 
    atoms 7-12, 14-15 entry H          line    70 file /home/xy3866/psi4conda/share/psi4/basis/aug-cc-pvtz-jkfit.gbs 
    atoms 13          entry S          line   730 file /home/xy3866/psi4conda/share/psi4/basis/aug-cc-pvtz-jkfit.gbs 

  ==> Pre-Iterations <==

   -------------------------------------------------------
    Irrep   Nso     Nmo     Nalpha   Nbeta   Ndocc  Nsocc
   -------------------------------------------------------
     A        510     510       0       0       0       0
   -------------------------------------------------------
    Total     510     510      30      30      30       0
   -------------------------------------------------------

  ==> Integral Setup <==

  ==> DiskDFJK: Density-Fitted J/K Matrices <==

    J tasked:                  Yes
    K tasked:                  Yes
    wK tasked:                  No
    OpenMP threads:              4
    Integrals threads:           4
    Memory [MiB]:            22888
    Algorithm:                Core
    Integral Cache:           SAVE
    Schwarz Cutoff:          1E-12
    Fitting Condition:       1E-10

   => Auxiliary Basis Set <=

  Basis Set: (AUG-CC-PVTZ AUX)
    Blend: AUG-CC-PVTZ-JKFIT
    Number of shells: 334
    Number of basis function: 1138
    Number of Cartesian functions: 1406
    Spherical Harmonics?: true
    Max angular momentum: 4

  Minimum eigenvalue in the overlap matrix is 2.6745381527E-07.
  Using Symmetric Orthogonalization.

  SCF Guess: Superposition of Atomic Densities via on-the-fly atomic UHF.

  ==> Iterations <==

                           Total Energy        Delta E     RMS |[F,P]|

   @DF-RHF iter SAD:  -628.66683316976355   -6.28667e+02   0.00000e+00 
   @DF-RHF iter   1:  -629.28585369326197   -6.19021e-01   1.13763e-03 DIIS
   @DF-RHF iter   2:  -629.45534262267665   -1.69489e-01   5.36232e-04 DIIS
   @DF-RHF iter   3:  -629.49304052759908   -3.76979e-02   9.96946e-05 DIIS
   @DF-RHF iter   4:  -629.49539326463196   -2.35274e-03   2.26316e-05 DIIS
   @DF-RHF iter   5:  -629.49552687815469   -1.33614e-04   6.11422e-06 DIIS
   @DF-RHF iter   6:  -629.49554026946203   -1.33913e-05   1.56501e-06 DIIS
   @DF-RHF iter   7:  -629.49554132066714   -1.05121e-06   4.16594e-07 DIIS
   @DF-RHF iter   8:  -629.49554138570534   -6.50382e-08   1.02427e-07 DIIS
   @DF-RHF iter   9:  -629.49554138929398   -3.58864e-09   2.33908e-08 DIIS
   @DF-RHF iter  10:  -629.49554138951396   -2.19984e-10   5.19572e-09 DIIS
  Energy and wave function converged.


  ==> Post-Iterations <==

    Orbital Energies [Eh]
    ---------------------

    Doubly Occupied:                                                      

       1A    -91.953864     2A    -11.243252     3A    -11.242778  
       4A    -11.242561     5A    -11.241514     6A    -11.241314  
       7A    -11.240802     8A     -8.956162     9A     -6.637486  
      10A     -6.636720    11A     -6.635455    12A     -1.157568  
      13A     -1.021889    14A     -1.021830    15A     -0.970285  
      16A     -0.831124    17A     -0.830873    18A     -0.716428  
      19A     -0.650762    20A     -0.626015    21A     -0.594850  
      22A     -0.594836    23A     -0.575445    24A     -0.514606  
      25A     -0.501690    26A     -0.501506    27A     -0.486910  
      28A     -0.374729    29A     -0.344630    30A     -0.343258  

    Virtual:                                                              

      31A      0.027371    32A      0.032703    33A      0.034026  
      34A      0.046317    35A      0.046564    36A      0.049410  
      37A      0.061887    38A      0.063355    39A      0.094985  
      40A      0.096536    41A      0.100148    42A      0.103729  
      43A      0.109699    44A      0.114929    45A      0.116109  
      46A      0.117204    47A      0.120789    48A      0.124817  
      49A      0.124986    50A      0.129801    51A      0.131140  
      52A      0.143407    53A      0.151888    54A      0.152080  
      55A      0.152532    56A      0.155565    57A      0.156291  
      58A      0.158085    59A      0.158736    60A      0.161866  
      61A      0.174547    62A      0.186282    63A      0.196597  
      64A      0.224353    65A      0.229508    66A      0.239022  
      67A      0.240650    68A      0.247817    69A      0.252667  
      70A      0.268572    71A      0.273506    72A      0.296184  
      73A      0.297899    74A      0.300268    75A      0.301954  
      76A      0.308596    77A      0.310155    78A      0.319931  
      79A      0.324691    80A      0.324714    81A      0.330805  
      82A      0.331451    83A      0.335964    84A      0.345097  
      85A      0.345415    86A      0.346301    87A      0.347297  
      88A      0.349788    89A      0.350113    90A      0.376333  
      91A      0.377665    92A      0.383153    93A      0.389702  
      94A      0.396612    95A      0.402064    96A      0.419169  
      97A      0.420388    98A      0.429372    99A      0.435460  
     100A      0.438792   101A      0.455749   102A      0.459355  
     103A      0.462648   104A      0.466492   105A      0.479127  
     106A      0.482205   107A      0.482628   108A      0.487191  
     109A      0.490943   110A      0.497470   111A      0.498363  
     112A      0.500415   113A      0.503670   114A      0.513004  
     115A      0.518745   116A      0.525822   117A      0.527960  
     118A      0.529952   119A      0.537103   120A      0.540734  
     121A      0.543000   122A      0.543228   123A      0.544243  
     124A      0.595850   125A      0.598159   126A      0.613271  
     127A      0.627028   128A      0.631423   129A      0.638320  
     130A      0.645382   131A      0.647572   132A      0.651975  
     133A      0.654626   134A      0.660676   135A      0.664721  
     136A      0.673299   137A      0.691852   138A      0.699285  
     139A      0.703321   140A      0.705427   141A      0.718743  
     142A      0.726640   143A      0.735624   144A      0.742415  
     145A      0.748557   146A      0.762513   147A      0.769297  
     148A      0.776096   149A      0.785996   150A      0.787437  
     151A      0.789479   152A      0.793434   153A      0.796405  
     154A      0.808471   155A      0.828060   156A      0.831514  
     157A      0.844883   158A      0.852262   159A      0.852557  
     160A      0.855261   161A      0.868509   162A      0.874989  
     163A      0.878963   164A      0.892470   165A      0.897689  
     166A      0.902256   167A      0.905654   168A      0.915748  
     169A      0.919635   170A      0.922710   171A      0.924032  
     172A      0.929708   173A      0.932272   174A      0.935909  
     175A      0.948074   176A      0.963118   177A      0.978281  
     178A      0.980077   179A      0.989290   180A      0.992058  
     181A      1.020222   182A      1.025384   183A      1.025413  
     184A      1.037570   185A      1.041937   186A      1.043629  
     187A      1.069805   188A      1.070024   189A      1.080404  
     190A      1.094630   191A      1.096874   192A      1.097118  
     193A      1.097820   194A      1.110809   195A      1.112093  
     196A      1.113795   197A      1.129610   198A      1.138774  
     199A      1.141020   200A      1.147194   201A      1.148910  
     202A      1.154813   203A      1.156889   204A      1.163381  
     205A      1.176196   206A      1.179714   207A      1.186092  
     208A      1.192911   209A      1.204842   210A      1.207048  
     211A      1.216354   212A      1.221358   213A      1.233575  
     214A      1.240797   215A      1.241987   216A      1.246581  
     217A      1.262508   218A      1.266784   219A      1.271816  
     220A      1.277757   221A      1.287704   222A      1.297883  
     223A      1.320693   224A      1.357807   225A      1.359194  
     226A      1.360775   227A      1.365575   228A      1.374769  
     229A      1.382117   230A      1.388553   231A      1.391013  
     232A      1.399780   233A      1.413720   234A      1.424246  
     235A      1.427122   236A      1.435267   237A      1.452024  
     238A      1.472811   239A      1.485809   240A      1.494507  
     241A      1.509135   242A      1.517627   243A      1.521540  
     244A      1.540435   245A      1.557720   246A      1.559052  
     247A      1.565478   248A      1.577660   249A      1.667687  
     250A      1.673140   251A      1.678060   252A      1.690465  
     253A      1.695132   254A      1.697736   255A      1.700913  
     256A      1.701809   257A      1.717172   258A      1.730475  
     259A      1.753997   260A      1.757798   261A      1.770915  
     262A      1.773450   263A      1.784053   264A      1.794532  
     265A      1.807165   266A      1.812576   267A      1.819868  
     268A      1.836252   269A      1.838761   270A      1.853824  
     271A      1.860010   272A      1.891061   273A      1.892211  
     274A      1.909936   275A      1.920145   276A      1.927842  
     277A      1.953583   278A      1.958431   279A      1.992939  
     280A      1.997545   281A      2.003133   282A      2.005711  
     283A      2.018967   284A      2.031303   285A      2.036166  
     286A      2.056837   287A      2.062296   288A      2.068623  
     289A      2.076492   290A      2.082607   291A      2.085588  
     292A      2.103523   293A      2.109725   294A      2.113554  
     295A      2.136496   296A      2.149110   297A      2.185255  
     298A      2.202975   299A      2.220213   300A      2.255585  
     301A      2.258633   302A      2.261824   303A      2.276506  
     304A      2.300612   305A      2.342287   306A      2.345679  
     307A      2.348290   308A      2.352853   309A      2.365726  
     310A      2.382942   311A      2.391603   312A      2.400572  
     313A      2.404864   314A      2.455358   315A      2.463697  
     316A      2.485129   317A      2.491032   318A      2.510275  
     319A      2.520916   320A      2.557529   321A      2.563592  
     322A      2.576116   323A      2.587840   324A      2.599927  
     325A      2.600702   326A      2.654072   327A      2.693008  
     328A      2.719056   329A      2.723261   330A      2.747585  
     331A      2.758969   332A      2.787107   333A      2.787674  
     334A      2.840070   335A      2.840574   336A      2.903243  
     337A      2.942851   338A      2.993682   339A      3.033006  
     340A      3.100410   341A      3.111317   342A      3.173546  
     343A      3.193540   344A      3.242207   345A      3.243170  
     346A      3.258414   347A      3.274496   348A      3.308642  
     349A      3.323854   350A      3.325450   351A      3.367196  
     352A      3.369469   353A      3.384104   354A      3.403153  
     355A      3.404966   356A      3.410497   357A      3.417947  
     358A      3.434150   359A      3.449239   360A      3.464267  
     361A      3.531113   362A      3.532392   363A      3.533581  
     364A      3.533798   365A      3.550315   366A      3.598537  
     367A      3.601939   368A      3.609095   369A      3.621119  
     370A      3.635527   371A      3.635947   372A      3.652038  
     373A      3.660818   374A      3.681228   375A      3.715288  
     376A      3.727064   377A      3.752196   378A      3.795131  
     379A      3.815264   380A      3.828109   381A      3.831279  
     382A      3.833125   383A      3.835272   384A      3.862360  
     385A      3.870534   386A      3.898755   387A      3.904295  
     388A      3.944414   389A      3.966850   390A      3.976241  
     391A      3.988353   392A      3.991088   393A      4.009782  
     394A      4.010728   395A      4.038393   396A      4.048647  
     397A      4.053767   398A      4.058359   399A      4.059184  
     400A      4.077796   401A      4.086370   402A      4.104668  
     403A      4.125181   404A      4.131074   405A      4.133070  
     406A      4.134537   407A      4.165788   408A      4.176397  
     409A      4.200484   410A      4.224949   411A      4.262077  
     412A      4.281393   413A      4.293055   414A      4.328402  
     415A      4.329236   416A      4.344009   417A      4.345483  
     418A      4.371106   419A      4.372582   420A      4.401847  
     421A      4.404924   422A      4.421967   423A      4.429000  
     424A      4.430568   425A      4.440235   426A      4.443275  
     427A      4.458215   428A      4.465724   429A      4.468706  
     430A      4.469198   431A      4.493944   432A      4.502044  
     433A      4.504280   434A      4.506293   435A      4.582171  
     436A      4.598981   437A      4.677571   438A      4.696968  
     439A      4.712200   440A      4.717062   441A      4.722477  
     442A      4.728504   443A      4.740864   444A      4.758942  
     445A      4.790857   446A      4.791597   447A      4.797662  
     448A      4.878059   449A      4.878267   450A      4.923447  
     451A      4.941239   452A      4.943535   453A      4.965319  
     454A      5.028788   455A      5.034377   456A      5.058978  
     457A      5.077025   458A      5.086807   459A      5.111152  
     460A      5.113421   461A      5.131069   462A      5.131517  
     463A      5.157918   464A      5.164897   465A      5.176387  
     466A      5.177124   467A      5.181754   468A      5.190468  
     469A      5.235100   470A      5.237836   471A      5.335614  
     472A      5.339847   473A      5.342076   474A      5.379351  
     475A      5.434298   476A      5.435344   477A      5.437375  
     478A      5.443843   479A      5.504936   480A      5.539543  
     481A      5.599220   482A      5.746116   483A      5.751249  
     484A      5.786853   485A      5.788627   486A      5.851680  
     487A      5.878092   488A      5.971227   489A      5.978904  
     490A      6.191215   491A      6.210676   492A      6.265613  
     493A      6.266830   494A      6.371740   495A      6.382809  
     496A      6.393640   497A      6.646980   498A      6.658244  
     499A      6.864048   500A      6.869354   501A      7.023678  
     502A      7.221421   503A      7.437867   504A      7.947190  
     505A     16.050081   506A     16.050362   507A     17.549769  
     508A     19.424688   509A     19.472809   510A     19.569121  

    Final Occupation by Irrep:
              A 
    DOCC [    30 ]

  @DF-RHF Final Energy:  -629.49554138951396

   => Energetics <=

    Nuclear Repulsion Energy =            309.2644445800847279
    One-Electron Energy =               -1475.6576869273121702
    Two-Electron Energy =                 536.8977009577134822
    Total Energy =                       -629.4955413895139600

Computation Completed


Properties will be evaluated at   0.000000,   0.000000,   0.000000 [a0]

Properties computed using the SCF density matrix

  Nuclear Dipole Moment: [e a0]
     X:     0.0000      Y:    -0.0000      Z:     3.2112

  Electronic Dipole Moment: [e a0]
     X:     0.0000      Y:     0.0000      Z:    -2.6286

  Dipole Moment: [e a0]
     X:     0.0000      Y:     0.0000      Z:     0.5826     Total:     0.5826

  Dipole Moment: [D]
     X:     0.0000      Y:     0.0000      Z:     1.4809     Total:     1.4809


*** tstop() called on node51.bme.utexas.edu at Tue Sep 10 11:41:20 2019
Module time:
	user time   =     124.63 seconds =       2.08 minutes
	system time =       2.41 seconds =       0.04 minutes
	total time  =         34 seconds =       0.57 minutes
Total time:
	user time   =     124.63 seconds =       2.08 minutes
	system time =       2.41 seconds =       0.04 minutes
	total time  =         34 seconds =       0.57 minutes

  //>>>>>>>>>>>>>>>>>>>>>>>>>>>>>>>>>>>//
  //            Monomer A HF           //
  //<<<<<<<<<<<<<<<<<<<<<<<<<<<<<<<<<<<//


*** tstart() called on node51.bme.utexas.edu
*** at Tue Sep 10 11:41:20 2019

   => Loading Basis Set <=

    Name: AUG-CC-PVTZ
    Role: ORBITAL
    Keyword: BASIS
    atoms 1-6         entry C          line   235 file /home/xy3866/psi4conda/share/psi4/basis/aug-cc-pvtz.gbs 
    atoms 7-12, 14-15 entry H          line    36 file /home/xy3866/psi4conda/share/psi4/basis/aug-cc-pvtz.gbs 
    atoms 13          entry S          line   902 file /home/xy3866/psi4conda/share/psi4/basis/aug-cc-pvtz.gbs 


         ---------------------------------------------------------
                                   SCF
               by Justin Turney, Rob Parrish, Andy Simmonett
                          and Daniel G. A. Smith
                              RHF Reference
                        4 Threads,  30517 MiB Core
         ---------------------------------------------------------

  ==> Geometry <==

    Molecular point group: c1
    Full point group: C2v

    Geometry (in Angstrom), charge = 0, multiplicity = 1:

       Center              X                  Y                   Z               Mass       
    ------------   -----------------  -----------------  -----------------  -----------------
         C            0.000000000000    -1.393658000000     1.236644156231    12.000000000000
         C            1.207737000000    -0.696816000000     1.235419156231    12.000000000000
         C            1.207737000000     0.696816000000     1.235419156231    12.000000000000
         C            0.000000000000     1.393658000000     1.236644156231    12.000000000000
         C           -1.207737000000     0.696816000000     1.235419156231    12.000000000000
         C           -1.207737000000    -0.696816000000     1.235419156231    12.000000000000
         H            0.000000000000    -2.475320000000     1.241918156231     1.007825032230
         H            2.144314000000    -1.237314000000     1.234520156231     1.007825032230
         H            2.144314000000     1.237314000000     1.234520156231     1.007825032230
         H            0.000000000000     2.475320000000     1.241918156231     1.007825032230
         H           -2.144314000000     1.237314000000     1.234520156231     1.007825032230
         H           -2.144314000000    -1.237314000000     1.234520156231     1.007825032230
      Gh(S)           0.000000000000     0.000000000000    -2.893584943769    31.972071174400
      Gh(H)           0.000000000000     0.954437000000    -1.957516943769     1.007825032230
      Gh(H)           0.000000000000    -0.954437000000    -1.957516943769     1.007825032230

  Running in c1 symmetry.

  Rotational constants: A =      0.09427  B =      0.03489  C =      0.03476 [cm^-1]
  Rotational constants: A =   2826.03195  B =   1045.92811  C =   1042.19869 [MHz]
  Nuclear repulsion =  203.653891607934128

  Charge       = 0
  Multiplicity = 1
  Electrons    = 42
  Nalpha       = 21
  Nbeta        = 21

  ==> Algorithm <==

  SCF Algorithm Type is DF.
  DIIS enabled.
  MOM disabled.
  Fractional occupation disabled.
  Guess Type is SAD.
  Energy threshold   = 1.00e-08
  Density threshold  = 1.00e-08
  Integral threshold = 0.00e+00

  ==> Primary Basis <==

  Basis Set: AUG-CC-PVTZ
    Blend: AUG-CC-PVTZ
    Number of shells: 172
    Number of basis function: 510
    Number of Cartesian functions: 589
    Spherical Harmonics?: true
    Max angular momentum: 3

   => Loading Basis Set <=

    Name: (AUG-CC-PVTZ AUX)
    Role: JKFIT
    Keyword: DF_BASIS_SCF
    atoms 1-6         entry C          line   162 file /home/xy3866/psi4conda/share/psi4/basis/aug-cc-pvtz-jkfit.gbs 
    atoms 7-12, 14-15 entry H          line    70 file /home/xy3866/psi4conda/share/psi4/basis/aug-cc-pvtz-jkfit.gbs 
    atoms 13          entry S          line   730 file /home/xy3866/psi4conda/share/psi4/basis/aug-cc-pvtz-jkfit.gbs 

  ==> Pre-Iterations <==

   -------------------------------------------------------
    Irrep   Nso     Nmo     Nalpha   Nbeta   Ndocc  Nsocc
   -------------------------------------------------------
     A        510     510       0       0       0       0
   -------------------------------------------------------
    Total     510     510      21      21      21       0
   -------------------------------------------------------

  ==> Integral Setup <==

  ==> DiskDFJK: Density-Fitted J/K Matrices <==

    J tasked:                  Yes
    K tasked:                  Yes
    wK tasked:                  No
    OpenMP threads:              4
    Integrals threads:           4
    Memory [MiB]:            22888
    Algorithm:                Core
    Integral Cache:           LOAD
    Schwarz Cutoff:          1E-12
    Fitting Condition:       1E-10

   => Auxiliary Basis Set <=

  Basis Set: (AUG-CC-PVTZ AUX)
    Blend: AUG-CC-PVTZ-JKFIT
    Number of shells: 334
    Number of basis function: 1138
    Number of Cartesian functions: 1406
    Spherical Harmonics?: true
    Max angular momentum: 4

  Minimum eigenvalue in the overlap matrix is 2.6745381527E-07.
  Using Symmetric Orthogonalization.

  SCF Guess: Superposition of Atomic Densities via on-the-fly atomic UHF.

  ==> Iterations <==

                           Total Energy        Delta E     RMS |[F,P]|

   @DF-RHF iter SAD:  -230.19001526977749   -2.30190e+02   0.00000e+00 
   @DF-RHF iter   1:  -230.60091144136641   -4.10896e-01   1.07221e-03 DIIS
   @DF-RHF iter   2:  -230.74286650579813   -1.41955e-01   5.31542e-04 DIIS
   @DF-RHF iter   3:  -230.77973262250146   -3.68661e-02   8.49832e-05 DIIS
   @DF-RHF iter   4:  -230.78128051324006   -1.54789e-03   1.05017e-05 DIIS
   @DF-RHF iter   5:  -230.78130942667187   -2.89134e-05   1.91328e-06 DIIS
   @DF-RHF iter   6:  -230.78131044830192   -1.02163e-06   2.18337e-07 DIIS
   @DF-RHF iter   7:  -230.78131046405011   -1.57482e-08   3.40611e-08 DIIS
   @DF-RHF iter   8:  -230.78131046436667   -3.16561e-10   1.45369e-08 DIIS
   @DF-RHF iter   9:  -230.78131046440879   -4.21210e-11   2.99680e-09 DIIS
  Energy and wave function converged.


  ==> Post-Iterations <==

    Orbital Energies [Eh]
    ---------------------

    Doubly Occupied:                                                      

       1A    -11.236374     2A    -11.235830     3A    -11.235764  
       4A    -11.234587     5A    -11.234517     6A    -11.233945  
       7A     -1.150198     8A     -1.014919     9A     -1.014537  
      10A     -0.824205    11A     -0.824040    12A     -0.709620  
      13A     -0.644249    14A     -0.619045    15A     -0.588288  
      16A     -0.587883    17A     -0.502285    18A     -0.494969  
      19A     -0.494875    20A     -0.336889    21A     -0.336604  

    Virtual:                                                              

      22A      0.027280    23A      0.034509    24A      0.034657  
      25A      0.041352    26A      0.047990    27A      0.048047  
      28A      0.060624    29A      0.064512    30A      0.089308  
      31A      0.097490    32A      0.102489    33A      0.103206  
      34A      0.103937    35A      0.110827    36A      0.114222  
      37A      0.123078    38A      0.123290    39A      0.125842  
      40A      0.127801    41A      0.127812    42A      0.129305  
      43A      0.137318    44A      0.149199    45A      0.154330  
      46A      0.156209    47A      0.157694    48A      0.158265  
      49A      0.158437    50A      0.160747    51A      0.164670  
      52A      0.165920    53A      0.180349    54A      0.231204  
      55A      0.241311    56A      0.243333    57A      0.245991  
      58A      0.252548    59A      0.253718    60A      0.284424  
      61A      0.286028    62A      0.287035    63A      0.293686  
      64A      0.297743    65A      0.300837    66A      0.307569  
      67A      0.312314    68A      0.315128    69A      0.321119  
      70A      0.323139    71A      0.328817    72A      0.340017  
      73A      0.340366    74A      0.345563    75A      0.348755  
      76A      0.349330    77A      0.353885    78A      0.355598  
      79A      0.360509    80A      0.360799    81A      0.376081  
      82A      0.377273    83A      0.389712    84A      0.389900  
      85A      0.394019    86A      0.403249    87A      0.407756  
      88A      0.431473    89A      0.431685    90A      0.441788  
      91A      0.447298    92A      0.453695    93A      0.456891  
      94A      0.467571    95A      0.472989    96A      0.475620  
      97A      0.476789    98A      0.486945    99A      0.491474  
     100A      0.496628   101A      0.501462   102A      0.504895  
     103A      0.511595   104A      0.521988   105A      0.523603  
     106A      0.525648   107A      0.532462   108A      0.534264  
     109A      0.542410   110A      0.545269   111A      0.547303  
     112A      0.548119   113A      0.549797   114A      0.554441  
     115A      0.575147   116A      0.588849   117A      0.613008  
     118A      0.616251   119A      0.639550   120A      0.648060  
     121A      0.649608   122A      0.652537   123A      0.659349  
     124A      0.661209   125A      0.664692   126A      0.669145  
     127A      0.677747   128A      0.700774   129A      0.703201  
     130A      0.709459   131A      0.709630   132A      0.733288  
     133A      0.740513   134A      0.746025   135A      0.747074  
     136A      0.759424   137A      0.776427   138A      0.777634  
     139A      0.795499   140A      0.796787   141A      0.807445  
     142A      0.821025   143A      0.822517   144A      0.836911  
     145A      0.849278   146A      0.855740   147A      0.866454  
     148A      0.873086   149A      0.875047   150A      0.877077  
     151A      0.879951   152A      0.902265   153A      0.903669  
     154A      0.909285   155A      0.910353   156A      0.923629  
     157A      0.932829   158A      0.933833   159A      0.938418  
     160A      0.956337   161A      0.967604   162A      0.971635  
     163A      0.986167   164A      0.987491   165A      1.002379  
     166A      1.004746   167A      1.027193   168A      1.027842  
     169A      1.036611   170A      1.042712   171A      1.050032  
     172A      1.050557   173A      1.051395   174A      1.070676  
     175A      1.070941   176A      1.072318   177A      1.097721  
     178A      1.100015   179A      1.100156   180A      1.102791  
     181A      1.109593   182A      1.121235   183A      1.121813  
     184A      1.123552   185A      1.126483   186A      1.131511  
     187A      1.132917   188A      1.139230   189A      1.146402  
     190A      1.152122   191A      1.154567   192A      1.159997  
     193A      1.166387   194A      1.183913   195A      1.184786  
     196A      1.186048   197A      1.196847   198A      1.204546  
     199A      1.210440   200A      1.215945   201A      1.216400  
     202A      1.228877   203A      1.237544   204A      1.244978  
     205A      1.251995   206A      1.271313   207A      1.273047  
     208A      1.282177   209A      1.286691   210A      1.289959  
     211A      1.295007   212A      1.304777   213A      1.317680  
     214A      1.324237   215A      1.328233   216A      1.353718  
     217A      1.363958   218A      1.381740   219A      1.383775  
     220A      1.387662   221A      1.387671   222A      1.408106  
     223A      1.427052   224A      1.432704   225A      1.435017  
     226A      1.436086   227A      1.438768   228A      1.461456  
     229A      1.469863   230A      1.470381   231A      1.479632  
     232A      1.480848   233A      1.504410   234A      1.522610  
     235A      1.526271   236A      1.530923   237A      1.547580  
     238A      1.569534   239A      1.579904   240A      1.586991  
     241A      1.604736   242A      1.611501   243A      1.701996  
     244A      1.702175   245A      1.704516   246A      1.707184  
     247A      1.717840   248A      1.724464   249A      1.725127  
     250A      1.747389   251A      1.763950   252A      1.769412  
     253A      1.778735   254A      1.798966   255A      1.817632  
     256A      1.835048   257A      1.842264   258A      1.843905  
     259A      1.848393   260A      1.872076   261A      1.883019  
     262A      1.916132   263A      1.916533   264A      1.917105  
     265A      1.945612   266A      1.955295   267A      1.957549  
     268A      1.974431   269A      1.981134   270A      1.999011  
     271A      1.999617   272A      2.018553   273A      2.023214  
     274A      2.027206   275A      2.029172   276A      2.042420  
     277A      2.061791   278A      2.064171   279A      2.079134  
     280A      2.087989   281A      2.089165   282A      2.093980  
     283A      2.103031   284A      2.120162   285A      2.143958  
     286A      2.151380   287A      2.155877   288A      2.205758  
     289A      2.212054   290A      2.271937   291A      2.274166  
     292A      2.281983   293A      2.284385   294A      2.342376  
     295A      2.349728   296A      2.352477   297A      2.359561  
     298A      2.376999   299A      2.388129   300A      2.408745  
     301A      2.448502   302A      2.448660   303A      2.468453  
     304A      2.505854   305A      2.516978   306A      2.525169  
     307A      2.567069   308A      2.577500   309A      2.585426  
     310A      2.600618   311A      2.603007   312A      2.743882  
     313A      2.754344   314A      2.764774   315A      2.793717  
     316A      2.846761   317A      2.846845   318A      2.880219  
     319A      2.921800   320A      2.963194   321A      3.025650  
     322A      3.075871   323A      3.078270   324A      3.085092  
     325A      3.115457   326A      3.127920   327A      3.159449  
     328A      3.180201   329A      3.199816   330A      3.237540  
     331A      3.238475   332A      3.275237   333A      3.316365  
     334A      3.329374   335A      3.331885   336A      3.372129  
     337A      3.374183   338A      3.376429   339A      3.385152  
     340A      3.407798   341A      3.409121   342A      3.419914  
     343A      3.420982   344A      3.443693   345A      3.444473  
     346A      3.456712   347A      3.481132   348A      3.536663  
     349A      3.538530   350A      3.539035   351A      3.546717  
     352A      3.552357   353A      3.592191   354A      3.611080  
     355A      3.622163   356A      3.622770   357A      3.630518  
     358A      3.643410   359A      3.647234   360A      3.654365  
     361A      3.665451   362A      3.671019   363A      3.673815  
     364A      3.713072   365A      3.714268   366A      3.739594  
     367A      3.757913   368A      3.780742   369A      3.815788  
     370A      3.829133   371A      3.836706   372A      3.840015  
     373A      3.843500   374A      3.844980   375A      3.873609  
     376A      3.877195   377A      3.891179   378A      3.917769  
     379A      3.951367   380A      3.960789   381A      3.975788  
     382A      3.986149   383A      3.995629   384A      4.001365  
     385A      4.018424   386A      4.046869   387A      4.058914  
     388A      4.060372   389A      4.065759   390A      4.085890  
     391A      4.113428   392A      4.124707   393A      4.132218  
     394A      4.134191   395A      4.141632   396A      4.172347  
     397A      4.202326   398A      4.206522   399A      4.265054  
     400A      4.269109   401A      4.280156   402A      4.306439  
     403A      4.334769   404A      4.337441   405A      4.345143  
     406A      4.354080   407A      4.357379   408A      4.378897  
     409A      4.390195   410A      4.390218   411A      4.420196  
     412A      4.429086   413A      4.436238   414A      4.438356  
     415A      4.447832   416A      4.451778   417A      4.477469  
     418A      4.479436   419A      4.491300   420A      4.510838  
     421A      4.512668   422A      4.532612   423A      4.605496  
     424A      4.631513   425A      4.684201   426A      4.703454  
     427A      4.704748   428A      4.722792   429A      4.724002  
     430A      4.735112   431A      4.746780   432A      4.778195  
     433A      4.797644   434A      4.799448   435A      4.851382  
     436A      4.853539   437A      4.867515   438A      4.884704  
     439A      4.885084   440A      4.933457   441A      4.945370  
     442A      4.964956   443A      5.034548   444A      5.043869  
     445A      5.080900   446A      5.083861   447A      5.090462  
     448A      5.102815   449A      5.119488   450A      5.120629  
     451A      5.131954   452A      5.146031   453A      5.162887  
     454A      5.163905   455A      5.181462   456A      5.182439  
     457A      5.183896   458A      5.190538   459A      5.234816  
     460A      5.244466   461A      5.246000   462A      5.298632  
     463A      5.299305   464A      5.343327   465A      5.347059  
     466A      5.351724   467A      5.396648   468A      5.441446  
     469A      5.441838   470A      5.443986   471A      5.450487  
     472A      5.507266   473A      5.546354   474A      5.694044  
     475A      5.752724   476A      5.757677   477A      5.793294  
     478A      5.795345   479A      5.857952   480A      5.885033  
     481A      5.939418   482A      5.978249   483A      5.985261  
     484A      6.198261   485A      6.217863   486A      6.272182  
     487A      6.273461   488A      6.378446   489A      6.387269  
     490A      6.400105   491A      6.653748   492A      6.663287  
     493A      6.793829   494A      6.840806   495A      6.871275  
     496A      6.875793   497A      7.030512   498A      7.228281  
     499A      7.444616   500A     15.152055   501A     16.056840  
     502A     16.058599   503A     17.561849   504A     19.431430  
     505A     19.480046   506A     19.576059   507A     24.079128  
     508A     24.820944   509A     25.088793   510A    141.704838  

    Final Occupation by Irrep:
              A 
    DOCC [    21 ]

  @DF-RHF Final Energy:  -230.78131046440879

   => Energetics <=

    Nuclear Repulsion Energy =            203.6538916079341277
    One-Electron Energy =                -713.7631636860033950
    Two-Electron Energy =                 279.3279616136604204
    Total Energy =                       -230.7813104644088185

Computation Completed


Properties will be evaluated at   0.000000,   0.000000,   0.000000 [a0]

Properties computed using the SCF density matrix

  Nuclear Dipole Moment: [e a0]
     X:     0.0000      Y:    -0.0000      Z:    98.0989

  Electronic Dipole Moment: [e a0]
     X:     0.0000      Y:     0.0000      Z:   -98.0969

  Dipole Moment: [e a0]
     X:     0.0000      Y:     0.0000      Z:     0.0020     Total:     0.0020

  Dipole Moment: [D]
     X:     0.0000      Y:     0.0000      Z:     0.0052     Total:     0.0052


*** tstop() called on node51.bme.utexas.edu at Tue Sep 10 11:41:45 2019
Module time:
	user time   =      67.77 seconds =       1.13 minutes
	system time =       1.40 seconds =       0.02 minutes
	total time  =         25 seconds =       0.42 minutes
Total time:
	user time   =     192.41 seconds =       3.21 minutes
	system time =       3.81 seconds =       0.06 minutes
	total time  =         59 seconds =       0.98 minutes

  //>>>>>>>>>>>>>>>>>>>>>>>>>>>>>>>>>>>//
  //            Monomer B HF           //
  //<<<<<<<<<<<<<<<<<<<<<<<<<<<<<<<<<<<//


*** tstart() called on node51.bme.utexas.edu
*** at Tue Sep 10 11:41:45 2019

   => Loading Basis Set <=

    Name: AUG-CC-PVTZ
    Role: ORBITAL
    Keyword: BASIS
    atoms 1-6         entry C          line   235 file /home/xy3866/psi4conda/share/psi4/basis/aug-cc-pvtz.gbs 
    atoms 7-12, 14-15 entry H          line    36 file /home/xy3866/psi4conda/share/psi4/basis/aug-cc-pvtz.gbs 
    atoms 13          entry S          line   902 file /home/xy3866/psi4conda/share/psi4/basis/aug-cc-pvtz.gbs 


         ---------------------------------------------------------
                                   SCF
               by Justin Turney, Rob Parrish, Andy Simmonett
                          and Daniel G. A. Smith
                              RHF Reference
                        4 Threads,  30517 MiB Core
         ---------------------------------------------------------

  ==> Geometry <==

    Molecular point group: c1
    Full point group: C2v

    Geometry (in Angstrom), charge = 0, multiplicity = 1:

       Center              X                  Y                   Z               Mass       
    ------------   -----------------  -----------------  -----------------  -----------------
      Gh(C)           0.000000000000    -1.393658000000     1.236644156231    12.000000000000
      Gh(C)           1.207737000000    -0.696816000000     1.235419156231    12.000000000000
      Gh(C)           1.207737000000     0.696816000000     1.235419156231    12.000000000000
      Gh(C)           0.000000000000     1.393658000000     1.236644156231    12.000000000000
      Gh(C)          -1.207737000000     0.696816000000     1.235419156231    12.000000000000
      Gh(C)          -1.207737000000    -0.696816000000     1.235419156231    12.000000000000
      Gh(H)           0.000000000000    -2.475320000000     1.241918156231     1.007825032230
      Gh(H)           2.144314000000    -1.237314000000     1.234520156231     1.007825032230
      Gh(H)           2.144314000000     1.237314000000     1.234520156231     1.007825032230
      Gh(H)           0.000000000000     2.475320000000     1.241918156231     1.007825032230
      Gh(H)          -2.144314000000     1.237314000000     1.234520156231     1.007825032230
      Gh(H)          -2.144314000000    -1.237314000000     1.234520156231     1.007825032230
         S            0.000000000000     0.000000000000    -2.893584943769    31.972071174400
         H            0.000000000000     0.954437000000    -1.957516943769     1.007825032230
         H            0.000000000000    -0.954437000000    -1.957516943769     1.007825032230

  Running in c1 symmetry.

  Rotational constants: A =      0.09427  B =      0.03489  C =      0.03476 [cm^-1]
  Rotational constants: A =   2826.03195  B =   1045.92811  C =   1042.19869 [MHz]
  Nuclear repulsion =   12.944044801570231

  Charge       = 0
  Multiplicity = 1
  Electrons    = 18
  Nalpha       = 9
  Nbeta        = 9

  ==> Algorithm <==

  SCF Algorithm Type is DF.
  DIIS enabled.
  MOM disabled.
  Fractional occupation disabled.
  Guess Type is SAD.
  Energy threshold   = 1.00e-08
  Density threshold  = 1.00e-08
  Integral threshold = 0.00e+00

  ==> Primary Basis <==

  Basis Set: AUG-CC-PVTZ
    Blend: AUG-CC-PVTZ
    Number of shells: 172
    Number of basis function: 510
    Number of Cartesian functions: 589
    Spherical Harmonics?: true
    Max angular momentum: 3

   => Loading Basis Set <=

    Name: (AUG-CC-PVTZ AUX)
    Role: JKFIT
    Keyword: DF_BASIS_SCF
    atoms 1-6         entry C          line   162 file /home/xy3866/psi4conda/share/psi4/basis/aug-cc-pvtz-jkfit.gbs 
    atoms 7-12, 14-15 entry H          line    70 file /home/xy3866/psi4conda/share/psi4/basis/aug-cc-pvtz-jkfit.gbs 
    atoms 13          entry S          line   730 file /home/xy3866/psi4conda/share/psi4/basis/aug-cc-pvtz-jkfit.gbs 

  ==> Pre-Iterations <==

   -------------------------------------------------------
    Irrep   Nso     Nmo     Nalpha   Nbeta   Ndocc  Nsocc
   -------------------------------------------------------
     A        510     510       0       0       0       0
   -------------------------------------------------------
    Total     510     510       9       9       9       0
   -------------------------------------------------------

  ==> Integral Setup <==

  ==> DiskDFJK: Density-Fitted J/K Matrices <==

    J tasked:                  Yes
    K tasked:                  Yes
    wK tasked:                  No
    OpenMP threads:              4
    Integrals threads:           4
    Memory [MiB]:            22888
    Algorithm:                Core
    Integral Cache:           LOAD
    Schwarz Cutoff:          1E-12
    Fitting Condition:       1E-10

   => Auxiliary Basis Set <=

  Basis Set: (AUG-CC-PVTZ AUX)
    Blend: AUG-CC-PVTZ-JKFIT
    Number of shells: 334
    Number of basis function: 1138
    Number of Cartesian functions: 1406
    Spherical Harmonics?: true
    Max angular momentum: 4

  Minimum eigenvalue in the overlap matrix is 2.6745381527E-07.
  Using Symmetric Orthogonalization.

  SCF Guess: Superposition of Atomic Densities via on-the-fly atomic UHF.

  ==> Iterations <==

                           Total Energy        Delta E     RMS |[F,P]|

   @DF-RHF iter SAD:  -398.42061468143129   -3.98421e+02   0.00000e+00 
   @DF-RHF iter   1:  -398.67947688061508   -2.58862e-01   4.21245e-04 DIIS
   @DF-RHF iter   2:  -398.70925761722259   -2.97807e-02   1.59157e-04 DIIS
   @DF-RHF iter   3:  -398.71298984809476   -3.73223e-03   3.90827e-05 DIIS
   @DF-RHF iter   4:  -398.71369337271187   -7.03525e-04   7.71839e-06 DIIS
   @DF-RHF iter   5:  -398.71372313564603   -2.97629e-05   1.14470e-06 DIIS
   @DF-RHF iter   6:  -398.71372371664063   -5.80995e-07   2.91976e-07 DIIS
   @DF-RHF iter   7:  -398.71372375676486   -4.01242e-08   7.37956e-08 DIIS
   @DF-RHF iter   8:  -398.71372375932651   -2.56165e-09   1.31009e-08 DIIS
   @DF-RHF iter   9:  -398.71372375939256   -6.60521e-11   2.53360e-09 DIIS
  Energy and wave function converged.


  ==> Post-Iterations <==

    Orbital Energies [Eh]
    ---------------------

    Doubly Occupied:                                                      

       1A    -91.966922     2A     -8.969034     3A     -6.650306  
       4A     -6.649540     5A     -6.648234     6A     -0.982632  
       7A     -0.587487     8A     -0.503601     9A     -0.385519  

    Virtual:                                                              

      10A      0.016135    11A      0.029631    12A      0.031309  
      13A      0.043611    14A      0.047221    15A      0.047341  
      16A      0.059651    17A      0.064869    18A      0.070463  
      19A      0.086673    20A      0.089983    21A      0.092115  
      22A      0.097635    23A      0.102173    24A      0.116559  
      25A      0.121096    26A      0.121143    27A      0.124148  
      28A      0.124738    29A      0.125608    30A      0.127121  
      31A      0.141109    32A      0.142906    33A      0.152842  
      34A      0.156888    35A      0.156941    36A      0.160872  
      37A      0.161091    38A      0.164163    39A      0.166826  
      40A      0.183816    41A      0.192608    42A      0.203612  
      43A      0.211969    44A      0.216181    45A      0.226489  
      46A      0.232400    47A      0.242157    48A      0.249354  
      49A      0.262063    50A      0.276187    51A      0.283132  
      52A      0.286436    53A      0.289207    54A      0.295351  
      55A      0.312998    56A      0.318269    57A      0.319513  
      58A      0.320960    59A      0.325843    60A      0.328228  
      61A      0.328684    62A      0.336944    63A      0.346092  
      64A      0.350345    65A      0.359157    66A      0.360785  
      67A      0.361336    68A      0.368576    69A      0.371177  
      70A      0.373802    71A      0.382184    72A      0.395793  
      73A      0.397909    74A      0.400240    75A      0.415245  
      76A      0.419997    77A      0.423445    78A      0.433055  
      79A      0.433455    80A      0.433707    81A      0.446968  
      82A      0.454527    83A      0.456007    84A      0.467657  
      85A      0.478141    86A      0.488560    87A      0.491054  
      88A      0.493704    89A      0.499139    90A      0.517006  
      91A      0.519161    92A      0.530637    93A      0.534497  
      94A      0.547287    95A      0.552405    96A      0.559016  
      97A      0.562487    98A      0.575996    99A      0.583097  
     100A      0.585422   101A      0.608071   102A      0.615472  
     103A      0.618500   104A      0.620054   105A      0.620865  
     106A      0.630792   107A      0.634582   108A      0.635825  
     109A      0.646692   110A      0.660368   111A      0.665697  
     112A      0.672663   113A      0.675938   114A      0.683865  
     115A      0.685911   116A      0.700170   117A      0.700967  
     118A      0.705264   119A      0.710419   120A      0.720579  
     121A      0.721535   122A      0.725274   123A      0.735983  
     124A      0.741285   125A      0.745062   126A      0.758894  
     127A      0.764144   128A      0.786331   129A      0.787243  
     130A      0.788323   131A      0.789923   132A      0.793429  
     133A      0.794711   134A      0.800561   135A      0.835412  
     136A      0.836147   137A      0.851708   138A      0.860869  
     139A      0.866244   140A      0.887885   141A      0.891581  
     142A      0.905680   143A      0.909669   144A      0.920142  
     145A      0.923494   146A      0.949593   147A      0.949684  
     148A      0.961327   149A      0.976434   150A      0.987208  
     151A      0.998140   152A      1.009456   153A      1.016964  
     154A      1.019861   155A      1.034136   156A      1.047927  
     157A      1.053660   158A      1.057289   159A      1.062182  
     160A      1.062658   161A      1.071652   162A      1.073712  
     163A      1.081833   164A      1.111884   165A      1.113905  
     166A      1.123070   167A      1.133628   168A      1.135522  
     169A      1.145625   170A      1.157005   171A      1.166516  
     172A      1.169778   173A      1.172106   174A      1.175847  
     175A      1.178295   176A      1.183402   177A      1.188050  
     178A      1.203247   179A      1.205189   180A      1.222782  
     181A      1.237767   182A      1.245327   183A      1.248002  
     184A      1.248877   185A      1.255968   186A      1.279735  
     187A      1.280155   188A      1.285269   189A      1.287822  
     190A      1.301662   191A      1.306095   192A      1.307932  
     193A      1.308865   194A      1.309147   195A      1.309363  
     196A      1.316956   197A      1.320352   198A      1.339045  
     199A      1.339137   200A      1.356975   201A      1.368172  
     202A      1.374730   203A      1.380488   204A      1.399999  
     205A      1.409562   206A      1.415356   207A      1.434402  
     208A      1.435443   209A      1.438700   210A      1.477996  
     211A      1.495229   212A      1.500732   213A      1.532955  
     214A      1.535660   215A      1.536605   216A      1.539354  
     217A      1.547712   218A      1.555430   219A      1.559571  
     220A      1.561903   221A      1.565922   222A      1.572930  
     223A      1.577627   224A      1.588535   225A      1.596233  
     226A      1.605421   227A      1.639788   228A      1.648777  
     229A      1.662215   230A      1.666549   231A      1.666870  
     232A      1.675298   233A      1.689828   234A      1.696427  
     235A      1.713079   236A      1.714556   237A      1.715189  
     238A      1.736009   239A      1.778920   240A      1.794539  
     241A      1.816767   242A      1.836506   243A      1.848041  
     244A      1.853632   245A      1.862629   246A      1.888448  
     247A      1.891672   248A      1.895899   249A      1.898155  
     250A      1.917097   251A      1.918716   252A      1.975100  
     253A      1.981235   254A      2.009114   255A      2.012596  
     256A      2.045020   257A      2.075092   258A      2.097340  
     259A      2.123602   260A      2.143917   261A      2.152299  
     262A      2.153280   263A      2.163319   264A      2.169627  
     265A      2.171889   266A      2.177184   267A      2.189291  
     268A      2.210210   269A      2.211304   270A      2.216289  
     271A      2.220296   272A      2.242751   273A      2.260527  
     274A      2.293518   275A      2.298468   276A      2.323336  
     277A      2.324211   278A      2.328182   279A      2.339346  
     280A      2.346469   281A      2.350520   282A      2.358031  
     283A      2.361281   284A      2.367214   285A      2.375469  
     286A      2.379804   287A      2.386445   288A      2.387411  
     289A      2.388815   290A      2.461837   291A      2.469629  
     292A      2.485476   293A      2.501204   294A      2.506474  
     295A      2.515915   296A      2.520678   297A      2.528705  
     298A      2.537771   299A      2.539231   300A      2.541657  
     301A      2.546675   302A      2.548795   303A      2.586594  
     304A      2.609227   305A      2.616379   306A      2.647435  
     307A      2.675466   308A      2.717483   309A      2.720520  
     310A      2.741963   311A      2.762794   312A      2.785613  
     313A      2.787284   314A      2.831564   315A      2.832807  
     316A      2.875800   317A      2.880162   318A      2.885758  
     319A      2.924717   320A      2.949626   321A      3.035778  
     322A      3.054290   323A      3.093980   324A      3.128537  
     325A      3.131697   326A      3.248528   327A      3.283291  
     328A      3.287529   329A      3.486464   330A      3.488089  
     331A      3.531560   332A      3.585635   333A      3.701895  
     334A      3.782421   335A      3.816532   336A      3.837563  
     337A      3.866560   338A      3.931684   339A      3.938372  
     340A      3.944483   341A      3.967961   342A      3.984911  
     343A      3.993994   344A      4.027124   345A      4.032842  
     346A      4.052769   347A      4.057190   348A      4.081401  
     349A      4.083223   350A      4.093948   351A      4.102108  
     352A      4.116935   353A      4.154899   354A      4.158744  
     355A      4.163242   356A      4.194247   357A      4.195270  
     358A      4.207406   359A      4.215384   360A      4.216777  
     361A      4.222687   362A      4.265058   363A      4.282632  
     364A      4.286224   365A      4.298192   366A      4.300554  
     367A      4.322074   368A      4.344429   369A      4.361302  
     370A      4.363577   371A      4.394318   372A      4.424079  
     373A      4.425830   374A      4.437584   375A      4.473100  
     376A      4.474989   377A      4.475661   378A      4.507498  
     379A      4.550690   380A      4.557536   381A      4.562359  
     382A      4.563866   383A      4.566916   384A      4.568645  
     385A      4.578462   386A      4.589906   387A      4.591527  
     388A      4.598003   389A      4.609126   390A      4.633713  
     391A      4.639448   392A      4.656586   393A      4.708138  
     394A      4.712653   395A      4.723666   396A      4.731051  
     397A      4.782098   398A      4.800324   399A      4.808787  
     400A      4.840007   401A      4.884651   402A      4.951860  
     403A      4.952052   404A      4.969393   405A      4.971476  
     406A      4.979342   407A      4.992651   408A      5.051729  
     409A      5.054427   410A      5.065387   411A      5.102928  
     412A      5.105123   413A      5.111067   414A      5.140180  
     415A      5.153195   416A      5.165310   417A      5.172917  
     418A      5.173304   419A      5.207372   420A      5.208764  
     421A      5.210227   422A      5.269828   423A      5.275182  
     424A      5.401549   425A      5.411575   426A      5.425341  
     427A      5.446802   428A      5.451941   429A      5.486850  
     430A      5.496038   431A      5.499819   432A      5.522879  
     433A      5.591214   434A      5.621758   435A      5.625515  
     436A      5.659451   437A      5.679123   438A      5.688129  
     439A      5.704934   440A      5.724514   441A      5.726669  
     442A      5.730619   443A      5.762668   444A      5.789698  
     445A      5.791243   446A      5.794942   447A      5.796767  
     448A      5.815915   449A      5.889493   450A      5.957931  
     451A      5.960887   452A      5.997912   453A      6.001309  
     454A      6.128743   455A      6.129544   456A      6.167417  
     457A      6.188616   458A      6.191798   459A      6.192108  
     460A      6.207258   461A      6.416505   462A      6.429220  
     463A      6.429648   464A      6.461999   465A      6.517965  
     466A      6.703315   467A      6.780727   468A      6.800588  
     469A      6.880437   470A      6.882109   471A      6.998526  
     472A      7.062242   473A      7.062326   474A      7.111304  
     475A      7.129869   476A      7.150460   477A      7.152160  
     478A      7.391624   479A      7.475909   480A      7.488787  
     481A      7.571462   482A      7.652591   483A      7.656928  
     484A      7.782517   485A      7.886888   486A      7.936634  
     487A      7.997964   488A      8.190201   489A      8.193051  
     490A      8.206537   491A      8.325246   492A      8.325811  
     493A      8.956983   494A      8.957029   495A      9.361134  
     496A      9.378352   497A      9.411953   498A     10.041394  
     499A     10.041507   500A     10.980431   501A     11.033553  
     502A     11.257355   503A     11.328252   504A     11.347669  
     505A     49.665445   506A     49.668131   507A     50.882771  
     508A     55.506511   509A     55.601477   510A     56.633947  

    Final Occupation by Irrep:
              A 
    DOCC [     9 ]

  @DF-RHF Final Energy:  -398.71372375939256

   => Energetics <=

    Nuclear Repulsion Energy =             12.9440448015702305
    One-Electron Energy =                -576.6289867132841209
    Two-Electron Energy =                 164.9712181523213133
    Total Energy =                       -398.7137237593925647

Computation Completed


Properties will be evaluated at   0.000000,   0.000000,   0.000000 [a0]

Properties computed using the SCF density matrix

  Nuclear Dipole Moment: [e a0]
     X:     0.0000      Y:     0.0000      Z:   -94.8877

  Electronic Dipole Moment: [e a0]
     X:    -0.0000      Y:     0.0000      Z:    95.3150

  Dipole Moment: [e a0]
     X:    -0.0000      Y:     0.0000      Z:     0.4273     Total:     0.4273

  Dipole Moment: [D]
     X:    -0.0000      Y:     0.0000      Z:     1.0861     Total:     1.0861


*** tstop() called on node51.bme.utexas.edu at Tue Sep 10 11:42:08 2019
Module time:
	user time   =      60.07 seconds =       1.00 minutes
	system time =       1.18 seconds =       0.02 minutes
	total time  =         23 seconds =       0.38 minutes
Total time:
	user time   =     252.50 seconds =       4.21 minutes
	system time =       4.99 seconds =       0.08 minutes
	total time  =         82 seconds =       1.37 minutes
  Constructing Basis Sets for SAPT...

   => Loading Basis Set <=

    Name: (AUG-CC-PVTZ AUX)
    Role: RIFIT
    Keyword: DF_BASIS_SAPT
    atoms 1-6         entry C          line   148 file /home/xy3866/psi4conda/share/psi4/basis/aug-cc-pvtz-ri.gbs 
    atoms 7-12, 14-15 entry H          line    30 file /home/xy3866/psi4conda/share/psi4/basis/aug-cc-pvtz-ri.gbs 
    atoms 13          entry S          line   666 file /home/xy3866/psi4conda/share/psi4/basis/aug-cc-pvtz-ri.gbs 


  //>>>>>>>>>>>>>>>>>>>>>>>>>>>>>>>>>>>//
  //               SAPT2+              //
  //<<<<<<<<<<<<<<<<<<<<<<<<<<<<<<<<<<<//


*** tstart() called on node51.bme.utexas.edu
*** at Tue Sep 10 11:42:09 2019

        SAPT2+  
    Ed Hohenstein
     6 June 2009

      Orbital Information
  --------------------------
    NSO        =       510
    NMO        =       510
    NRI        =      1151
    NOCC A     =        21
    NOCC B     =         9
    FOCC A     =         6
    FOCC B     =         5
    NVIR A     =       489
    NVIR B     =       501

    Estimated memory usage: 4967.8 MB

    Natural Orbital Cutoff:   1.000E-06
    Disp(T3) Truncation:            Yes
    CCD (vv|vv) Truncation:         Yes
    MBPT T2 Truncation:             Yes

    Monomer A: 143 virtual orbitals dropped
    Monomer B: 417 virtual orbitals dropped

    Elst10,r            =    -0.002196821311 [Eh]
    Exch10 (S^2)        =     0.002246023512 [Eh]
    Exch10              =     0.002246557878 [Eh]
    Ind20,r (A<-B)      =    -0.000397006513 [Eh]
    Ind20,r (B<-A)      =    -0.000299098893 [Eh]
    Ind20,r             =    -0.000696105406 [Eh]
    Exch-Ind20,r (A<-B) =     0.000212799819 [Eh]
    Exch-Ind20,r (B<-A) =     0.000203911139 [Eh]
    Exch-Ind20,r        =     0.000416710959 [Eh]
    Disp20              =    -0.004791758231 [Eh]
    Disp20 (NO)         =    -0.004409113818 [Eh]
    Exch-Disp20         =     0.000349794810 [Eh]
    Elst12,r            =     0.000225739709 [Eh]
    Exch11              =     0.000164898451 [Eh]
    Exch12              =    -0.000066083481 [Eh]
    Ind22               =    -0.000021682802 [Eh]
    Disp21              =     0.001092357103 [Eh]
    Disp22 (SDQ)        =     0.000279359344 [Eh]

    (i =   1 of   4)        114 seconds
    (i =   2 of   4)        227 seconds
    (i =   3 of   4)        339 seconds
    (i =   4 of   4)        452 seconds

    Disp220 (T)         =    -0.000519357634 [Eh]

    (i =   1 of  15)          4 seconds
    (i =   2 of  15)          8 seconds
    (i =   3 of  15)         12 seconds
    (i =   4 of  15)         16 seconds
    (i =   5 of  15)         20 seconds
    (i =   6 of  15)         26 seconds
    (i =   7 of  15)         31 seconds
    (i =   8 of  15)         37 seconds
    (i =   9 of  15)         41 seconds
    (i =  10 of  15)         45 seconds
    (i =  11 of  15)         50 seconds
    (i =  12 of  15)         54 seconds
    (i =  13 of  15)         58 seconds
    (i =  14 of  15)         62 seconds
    (i =  15 of  15)         67 seconds

    Disp202 (T)         =    -0.000365410168 [Eh]

    Disp22 (T)          =    -0.000884767802 [Eh]

    Est. Disp220 (T)    =    -0.000564430024 [Eh]
    Est. Disp202 (T)    =    -0.000397122246 [Eh]

    Est. Disp22 (T)     =    -0.000961552269 [Eh]

    SAPT Results 
  --------------------------------------------------------------------------------------------------------
    Electrostatics                 -1.97108160 [mEh]      -1.23687238 [kcal/mol]      -5.17507403 [kJ/mol]
      Elst10,r                     -2.19682131 [mEh]      -1.37852618 [kcal/mol]      -5.76775356 [kJ/mol]
      Elst12,r                      0.22573971 [mEh]       0.14165381 [kcal/mol]       0.59267952 [kJ/mol]

    Exchange                        2.34537285 [mEh]       1.47174368 [kcal/mol]       6.15777556 [kJ/mol]
      Exch10                        2.24655788 [mEh]       1.40973635 [kcal/mol]       5.89833690 [kJ/mol]
      Exch10(S^2)                   2.24602351 [mEh]       1.40940103 [kcal/mol]       5.89693392 [kJ/mol]
      Exch11(S^2)                   0.16489845 [mEh]       0.10347534 [kcal/mol]       0.43294082 [kJ/mol]
      Exch12(S^2)                  -0.06608348 [mEh]      -0.04146801 [kcal/mol]      -0.17350216 [kJ/mol]

    Induction                      -0.56560506 [mEh]      -0.35492254 [kcal/mol]      -1.48499589 [kJ/mol]
      Ind20,r                      -0.69610541 [mEh]      -0.43681274 [kcal/mol]      -1.82762449 [kJ/mol]
      Ind22                        -0.02168280 [mEh]      -0.01360616 [kcal/mol]      -0.05692819 [kJ/mol]
      Exch-Ind20,r                  0.41671096 [mEh]       0.26149007 [kcal/mol]       1.09407447 [kJ/mol]
      Exch-Ind22                    0.01298002 [mEh]       0.00814508 [kcal/mol]       0.03407903 [kJ/mol]
      delta HF,r (2)               -0.27750783 [mEh]      -0.17413879 [kcal/mol]      -0.72859671 [kJ/mol]

    Dispersion                     -4.03179924 [mEh]      -2.52999222 [kcal/mol]     -10.58548745 [kJ/mol]
      Disp20                       -4.79175823 [mEh]      -3.00687369 [kcal/mol]     -12.58075950 [kJ/mol]
      Disp21                        1.09235710 [mEh]       0.68546443 [kcal/mol]       2.86798318 [kJ/mol]
      Disp22 (SDQ)                  0.27935934 [mEh]       0.17530063 [kcal/mol]       0.73345786 [kJ/mol]
      Disp22 (T)                   -0.88476780 [mEh]      -0.55520018 [kcal/mol]      -2.32295754 [kJ/mol]
      Est. Disp22 (T)              -0.96155227 [mEh]      -0.60338316 [kcal/mol]      -2.52455513 [kJ/mol]
      Exch-Disp20                   0.34979481 [mEh]       0.21949956 [kcal/mol]       0.91838615 [kJ/mol]

  Total HF                         -0.50716571 [mEh]      -0.31825129 [kcal/mol]      -1.33156340 [kJ/mol]
  Total SAPT0                      -4.94912913 [mEh]      -3.10562542 [kcal/mol]     -12.99393675 [kJ/mol]
  Total SAPT2                      -4.63327724 [mEh]      -2.90742536 [kcal/mol]     -12.16466771 [kJ/mol]
  Total SAPT2+                     -4.22311306 [mEh]      -2.65004345 [kcal/mol]     -11.08778181 [kJ/mol]

  Special recipe for scaled SAPT0 (see Manual):
    Electrostatics sSAPT0          -2.19682131 [mEh]      -1.37852618 [kcal/mol]      -5.76775356 [kJ/mol]
    Exchange sSAPT0                 2.24655788 [mEh]       1.40973635 [kcal/mol]       5.89833690 [kJ/mol]
    Induction sSAPT0               -0.55660478 [mEh]      -0.34927477 [kcal/mol]      -1.46136565 [kJ/mol]
    Dispersion sSAPT0              -4.44171370 [mEh]      -2.78721742 [kcal/mol]     -11.66171770 [kJ/mol]
  Total sSAPT0                     -4.94858191 [mEh]      -3.10528203 [kcal/mol]     -12.99250001 [kJ/mol]
  --------------------------------------------------------------------------------------------------------

*** tstop() called on node51.bme.utexas.edu at Tue Sep 10 12:06:37 2019
Module time:
	user time   =    5182.83 seconds =      86.38 minutes
	system time =     168.35 seconds =       2.81 minutes
	total time  =       1468 seconds =      24.47 minutes
Total time:
	user time   =    5435.53 seconds =      90.59 minutes
	system time =     173.35 seconds =       2.89 minutes
	total time  =       1551 seconds =      25.85 minutes

    Psi4 stopped on: Tuesday, 10 September 2019 12:06PM
    Psi4 wall time for execution: 0:25:50.22

*** Psi4 exiting successfully. Buy a developer a beer!
