
    -----------------------------------------------------------------------
          Psi4: An Open-Source Ab Initio Electronic Structure Package
                               Psi4 1.3.2 release

                         Git: Rev {HEAD} ecbda83 


    R. M. Parrish, L. A. Burns, D. G. A. Smith, A. C. Simmonett,
    A. E. DePrince III, E. G. Hohenstein, U. Bozkaya, A. Yu. Sokolov,
    R. Di Remigio, R. M. Richard, J. F. Gonthier, A. M. James,
    H. R. McAlexander, A. Kumar, M. Saitow, X. Wang, B. P. Pritchard,
    P. Verma, H. F. Schaefer III, K. Patkowski, R. A. King, E. F. Valeev,
    F. A. Evangelista, J. M. Turney, T. D. Crawford, and C. D. Sherrill,
    J. Chem. Theory Comput. 13(7) pp 3185--3197 (2017).
    (doi: 10.1021/acs.jctc.7b00174)


                         Additional Contributions by
    P. Kraus, H. Kruse, M. H. Lechner, M. C. Schieber, R. A. Shaw,
    A. Alenaizan, R. Galvelis, Z. L. Glick, S. Lehtola, and J. P. Misiewicz

    -----------------------------------------------------------------------


    Psi4 started on: Tuesday, 10 September 2019 11:12AM

    Process ID: 42783
    Host:       node51.bme.utexas.edu
    PSIDATADIR: /home/xy3866/psi4conda/share/psi4
    Memory:     500.0 MiB
    Threads:    4
    
  ==> Input File <==

--------------------------------------------------------------------------
#psi4
#
memory 32 gb

molecule  {
0 1
  C        0.0000000    -1.3936580     1.0640200
  C        1.2077370    -0.6968160     1.0627950
  C        1.2077370     0.6968160     1.0627950
  C        0.0000000     1.3936580     1.0640200
  C       -1.2077370     0.6968160     1.0627950
  C       -1.2077370    -0.6968160     1.0627950
  H        0.0000000    -2.4753200     1.0692940
  H        2.1443140    -1.2373140     1.0618960
  H        2.1443140     1.2373140     1.0618960
  H        0.0000000     2.4753200     1.0692940
  H       -2.1443140     1.2373140     1.0618960
  H       -2.1443140    -1.2373140     1.0618960
--
0 1
  S        0.0000000    -0.0000000    -2.8785086
  H        0.0000000     0.9544370    -1.9424406
  H        0.0000000    -0.9544370    -1.9424406
units angstrom
no_reorient  #important for SAPT in psi4, default
symmetry c1  #important for SAPT in psi4, default
}

set {
basis aug-cc-pVTZ
scf_type DF
freeze_core True
}
energy('sapt2+')
--------------------------------------------------------------------------

  Memory set to  29.802 GiB by Python driver.

  //>>>>>>>>>>>>>>>>>>>>>>>>>>>>>>>>>>>//
  //              Dimer HF             //
  //<<<<<<<<<<<<<<<<<<<<<<<<<<<<<<<<<<<//


*** tstart() called on node51.bme.utexas.edu
*** at Tue Sep 10 11:12:08 2019

   => Loading Basis Set <=

    Name: AUG-CC-PVTZ
    Role: ORBITAL
    Keyword: BASIS
    atoms 1-6         entry C          line   235 file /home/xy3866/psi4conda/share/psi4/basis/aug-cc-pvtz.gbs 
    atoms 7-12, 14-15 entry H          line    36 file /home/xy3866/psi4conda/share/psi4/basis/aug-cc-pvtz.gbs 
    atoms 13          entry S          line   902 file /home/xy3866/psi4conda/share/psi4/basis/aug-cc-pvtz.gbs 


         ---------------------------------------------------------
                                   SCF
               by Justin Turney, Rob Parrish, Andy Simmonett
                          and Daniel G. A. Smith
                              RHF Reference
                        4 Threads,  30517 MiB Core
         ---------------------------------------------------------

  ==> Geometry <==

    Molecular point group: c1
    Full point group: C2v

    Geometry (in Angstrom), charge = 0, multiplicity = 1:

       Center              X                  Y                   Z               Mass       
    ------------   -----------------  -----------------  -----------------  -----------------
         C            0.000000000000    -1.393658000000     1.179701852667    12.000000000000
         C            1.207737000000    -0.696816000000     1.178476852667    12.000000000000
         C            1.207737000000     0.696816000000     1.178476852667    12.000000000000
         C            0.000000000000     1.393658000000     1.179701852667    12.000000000000
         C           -1.207737000000     0.696816000000     1.178476852667    12.000000000000
         C           -1.207737000000    -0.696816000000     1.178476852667    12.000000000000
         H            0.000000000000    -2.475320000000     1.184975852667     1.007825032230
         H            2.144314000000    -1.237314000000     1.177577852667     1.007825032230
         H            2.144314000000     1.237314000000     1.177577852667     1.007825032230
         H            0.000000000000     2.475320000000     1.184975852667     1.007825032230
         H           -2.144314000000     1.237314000000     1.177577852667     1.007825032230
         H           -2.144314000000    -1.237314000000     1.177577852667     1.007825032230
         S            0.000000000000     0.000000000000    -2.762826747333    31.972071174400
         H            0.000000000000     0.954437000000    -1.826758747333     1.007825032230
         H            0.000000000000    -0.954437000000    -1.826758747333     1.007825032230

  Running in c1 symmetry.

  Rotational constants: A =      0.09427  B =      0.03764  C =      0.03750 [cm^-1]
  Rotational constants: A =   2826.03195  B =   1128.55604  C =   1124.21532 [MHz]
  Nuclear repulsion =  313.179997882299972

  Charge       = 0
  Multiplicity = 1
  Electrons    = 60
  Nalpha       = 30
  Nbeta        = 30

  ==> Algorithm <==

  SCF Algorithm Type is DF.
  DIIS enabled.
  MOM disabled.
  Fractional occupation disabled.
  Guess Type is SAD.
  Energy threshold   = 1.00e-08
  Density threshold  = 1.00e-08
  Integral threshold = 0.00e+00

  ==> Primary Basis <==

  Basis Set: AUG-CC-PVTZ
    Blend: AUG-CC-PVTZ
    Number of shells: 172
    Number of basis function: 510
    Number of Cartesian functions: 589
    Spherical Harmonics?: true
    Max angular momentum: 3

   => Loading Basis Set <=

    Name: (AUG-CC-PVTZ AUX)
    Role: JKFIT
    Keyword: DF_BASIS_SCF
    atoms 1-6         entry C          line   162 file /home/xy3866/psi4conda/share/psi4/basis/aug-cc-pvtz-jkfit.gbs 
    atoms 7-12, 14-15 entry H          line    70 file /home/xy3866/psi4conda/share/psi4/basis/aug-cc-pvtz-jkfit.gbs 
    atoms 13          entry S          line   730 file /home/xy3866/psi4conda/share/psi4/basis/aug-cc-pvtz-jkfit.gbs 

  ==> Pre-Iterations <==

   -------------------------------------------------------
    Irrep   Nso     Nmo     Nalpha   Nbeta   Ndocc  Nsocc
   -------------------------------------------------------
     A        510     510       0       0       0       0
   -------------------------------------------------------
    Total     510     510      30      30      30       0
   -------------------------------------------------------

  ==> Integral Setup <==

  ==> DiskDFJK: Density-Fitted J/K Matrices <==

    J tasked:                  Yes
    K tasked:                  Yes
    wK tasked:                  No
    OpenMP threads:              4
    Integrals threads:           4
    Memory [MiB]:            22888
    Algorithm:                Core
    Integral Cache:           SAVE
    Schwarz Cutoff:          1E-12
    Fitting Condition:       1E-10

   => Auxiliary Basis Set <=

  Basis Set: (AUG-CC-PVTZ AUX)
    Blend: AUG-CC-PVTZ-JKFIT
    Number of shells: 334
    Number of basis function: 1138
    Number of Cartesian functions: 1406
    Spherical Harmonics?: true
    Max angular momentum: 4

  Minimum eigenvalue in the overlap matrix is 2.6549750146E-07.
  Using Symmetric Orthogonalization.

  SCF Guess: Superposition of Atomic Densities via on-the-fly atomic UHF.

  ==> Iterations <==

                           Total Energy        Delta E     RMS |[F,P]|

   @DF-RHF iter SAD:  -628.69147542092560   -6.28691e+02   0.00000e+00 
   @DF-RHF iter   1:  -629.28614127832907   -5.94666e-01   1.13512e-03 DIIS
   @DF-RHF iter   2:  -629.45505884143631   -1.68918e-01   5.33404e-04 DIIS
   @DF-RHF iter   3:  -629.49235561638989   -3.72968e-02   1.00258e-04 DIIS
   @DF-RHF iter   4:  -629.49471675416976   -2.36114e-03   2.29839e-05 DIIS
   @DF-RHF iter   5:  -629.49485336233045   -1.36608e-04   6.19372e-06 DIIS
   @DF-RHF iter   6:  -629.49486702355387   -1.36612e-05   1.60458e-06 DIIS
   @DF-RHF iter   7:  -629.49486810606641   -1.08251e-06   4.32761e-07 DIIS
   @DF-RHF iter   8:  -629.49486817595539   -6.98890e-08   1.05001e-07 DIIS
   @DF-RHF iter   9:  -629.49486817977811   -3.82272e-09   2.38106e-08 DIIS
   @DF-RHF iter  10:  -629.49486818000435   -2.26237e-10   5.57216e-09 DIIS
  Energy and wave function converged.


  ==> Post-Iterations <==

    Orbital Energies [Eh]
    ---------------------

    Doubly Occupied:                                                      

       1A    -91.951734     2A    -11.243837     3A    -11.243371  
       4A    -11.243134     5A    -11.242102     6A    -11.241887  
       7A    -11.241382     8A     -8.954079     9A     -6.635411  
      10A     -6.634647    11A     -6.633389    12A     -1.158324  
      13A     -1.022642    14A     -1.022458    15A     -0.968608  
      16A     -0.831765    17A     -0.831494    18A     -0.717050  
      19A     -0.651336    20A     -0.626643    21A     -0.595503  
      22A     -0.595402    23A     -0.574054    24A     -0.517421  
      25A     -0.502302    26A     -0.502071    27A     -0.483146  
      28A     -0.373736    29A     -0.345425    30A     -0.343297  

    Virtual:                                                              

      31A      0.027391    32A      0.032691    33A      0.034029  
      34A      0.046334    35A      0.046557    36A      0.050236  
      37A      0.061866    38A      0.063320    39A      0.094248  
      40A      0.095946    41A      0.099086    42A      0.103952  
      43A      0.109985    44A      0.115707    45A      0.117450  
      46A      0.117476    47A      0.120759    48A      0.124711  
      49A      0.124835    50A      0.129466    51A      0.131566  
      52A      0.144489    53A      0.151348    54A      0.151935  
      55A      0.152466    56A      0.155547    57A      0.156201  
      58A      0.158558    59A      0.160775    60A      0.163322  
      61A      0.175652    62A      0.189539    63A      0.198058  
      64A      0.225840    65A      0.229481    66A      0.239170  
      67A      0.241030    68A      0.252552    69A      0.253722  
      70A      0.269358    71A      0.274506    72A      0.297629  
      73A      0.298029    74A      0.301482    75A      0.302745  
      76A      0.308154    77A      0.310620    78A      0.324135  
      79A      0.324422    80A      0.325342    81A      0.328596  
      82A      0.335782    83A      0.336194    84A      0.344862  
      85A      0.345081    86A      0.346511    87A      0.347713  
      88A      0.352322    89A      0.354982    90A      0.373924  
      91A      0.376796    92A      0.385183    93A      0.391236  
      94A      0.398350    95A      0.407881    96A      0.420962  
      97A      0.425924    98A      0.430192    99A      0.441918  
     100A      0.443304   101A      0.455653   102A      0.461306  
     103A      0.466761   104A      0.467271   105A      0.479822  
     106A      0.481956   107A      0.483148   108A      0.490106  
     109A      0.494382   110A      0.496934   111A      0.498077  
     112A      0.502705   113A      0.504343   114A      0.512481  
     115A      0.520337   116A      0.525695   117A      0.529532  
     118A      0.530308   119A      0.542140   120A      0.542936  
     121A      0.546090   122A      0.548635   123A      0.550540  
     124A      0.599215   125A      0.599383   126A      0.615120  
     127A      0.629975   128A      0.630807   129A      0.636547  
     130A      0.650543   131A      0.651882   132A      0.652637  
     133A      0.654165   134A      0.660594   135A      0.670320  
     136A      0.672615   137A      0.699153   138A      0.704626  
     139A      0.705172   140A      0.715857   141A      0.720582  
     142A      0.727998   143A      0.735905   144A      0.746163  
     145A      0.749623   146A      0.769092   147A      0.773991  
     148A      0.781965   149A      0.789439   150A      0.789697  
     151A      0.791891   152A      0.794922   153A      0.799386  
     154A      0.805974   155A      0.828897   156A      0.831142  
     157A      0.848332   158A      0.853149   159A      0.855270  
     160A      0.858516   161A      0.870365   162A      0.874641  
     163A      0.883496   164A      0.892279   165A      0.898445  
     166A      0.901606   167A      0.904546   168A      0.921727  
     169A      0.924441   170A      0.925067   171A      0.933743  
     172A      0.940068   173A      0.942729   174A      0.945348  
     175A      0.954762   176A      0.958965   177A      0.983612  
     178A      0.993762   179A      1.000848   180A      1.002748  
     181A      1.023918   182A      1.031139   183A      1.031510  
     184A      1.033619   185A      1.056704   186A      1.059187  
     187A      1.073083   188A      1.075181   189A      1.088601  
     190A      1.094212   191A      1.098953   192A      1.101244  
     193A      1.102451   194A      1.114301   195A      1.117876  
     196A      1.123919   197A      1.138890   198A      1.139901  
     199A      1.141805   200A      1.149643   201A      1.154091  
     202A      1.156831   203A      1.162152   204A      1.170090  
     205A      1.183538   206A      1.185044   207A      1.192918  
     208A      1.204987   209A      1.207103   210A      1.220080  
     211A      1.223253   212A      1.227671   213A      1.241185  
     214A      1.252835   215A      1.258064   216A      1.259719  
     217A      1.268837   218A      1.270416   219A      1.282707  
     220A      1.292225   221A      1.294809   222A      1.311391  
     223A      1.332889   224A      1.358441   225A      1.374868  
     226A      1.376637   227A      1.381178   228A      1.381683  
     229A      1.390829   230A      1.400001   231A      1.411421  
     232A      1.411977   233A      1.414443   234A      1.419462  
     235A      1.428662   236A      1.455744   237A      1.468603  
     238A      1.473852   239A      1.499925   240A      1.510327  
     241A      1.517842   242A      1.521963   243A      1.525952  
     244A      1.538758   245A      1.557786   246A      1.560047  
     247A      1.564560   248A      1.585636   249A      1.666580  
     250A      1.682058   251A      1.689591   252A      1.695993  
     253A      1.697506   254A      1.702583   255A      1.708242  
     256A      1.711939   257A      1.734436   258A      1.735396  
     259A      1.756346   260A      1.758046   261A      1.776560  
     262A      1.779823   263A      1.794462   264A      1.807053  
     265A      1.813261   266A      1.818961   267A      1.831438  
     268A      1.834141   269A      1.839821   270A      1.854490  
     271A      1.872795   272A      1.891429   273A      1.902672  
     274A      1.910900   275A      1.927054   276A      1.942376  
     277A      1.969225   278A      1.975299   279A      1.987227  
     280A      2.001910   281A      2.002472   282A      2.007883  
     283A      2.024428   284A      2.035699   285A      2.037165  
     286A      2.057606   287A      2.066664   288A      2.075298  
     289A      2.078146   290A      2.080116   291A      2.093420  
     292A      2.102757   293A      2.115047   294A      2.120854  
     295A      2.144761   296A      2.173880   297A      2.205596  
     298A      2.226659   299A      2.237126   300A      2.255794  
     301A      2.271724   302A      2.273845   303A      2.279198  
     304A      2.322632   305A      2.341308   306A      2.344989  
     307A      2.353049   308A      2.355096   309A      2.366330  
     310A      2.396675   311A      2.399305   312A      2.406103  
     313A      2.418838   314A      2.455940   315A      2.464432  
     316A      2.494106   317A      2.495887   318A      2.508499  
     319A      2.520567   320A      2.563350   321A      2.565910  
     322A      2.579938   323A      2.585097   324A      2.600023  
     325A      2.616707   326A      2.678628   327A      2.701067  
     328A      2.747265   329A      2.747343   330A      2.758890  
     331A      2.759068   332A      2.787425   333A      2.792307  
     334A      2.840671   335A      2.841880   336A      2.910236  
     337A      2.977822   338A      3.026577   339A      3.042852  
     340A      3.111177   341A      3.121052   342A      3.178987  
     343A      3.227072   344A      3.255821   345A      3.263240  
     346A      3.287305   347A      3.297154   348A      3.313390  
     349A      3.324160   350A      3.338793   351A      3.370607  
     352A      3.370864   353A      3.390611   354A      3.404792  
     355A      3.408766   356A      3.410836   357A      3.421441  
     358A      3.433446   359A      3.457814   360A      3.462079  
     361A      3.531480   362A      3.533941   363A      3.534999  
     364A      3.535772   365A      3.571099   366A      3.603395  
     367A      3.605475   368A      3.624580   369A      3.636223  
     370A      3.647036   371A      3.649442   372A      3.658167  
     373A      3.666933   374A      3.697367   375A      3.748568  
     376A      3.749951   377A      3.752562   378A      3.802317  
     379A      3.814130   380A      3.832044   381A      3.834003  
     382A      3.834929   383A      3.838849   384A      3.870727  
     385A      3.878562   386A      3.916929   387A      3.917314  
     388A      3.954645   389A      3.966188   390A      3.975925  
     391A      3.988047   392A      3.992283   393A      4.009321  
     394A      4.032984   395A      4.039600   396A      4.050814  
     397A      4.053832   398A      4.063682   399A      4.067154  
     400A      4.099775   401A      4.105746   402A      4.114538  
     403A      4.133001   404A      4.135630   405A      4.141315  
     406A      4.142968   407A      4.165160   408A      4.184064  
     409A      4.201525   410A      4.248694   411A      4.264356  
     412A      4.290764   413A      4.294720   414A      4.329309  
     415A      4.334216   416A      4.342737   417A      4.345735  
     418A      4.372347   419A      4.375327   420A      4.415752  
     421A      4.420904   422A      4.422155   423A      4.429146  
     424A      4.429517   425A      4.440810   426A      4.445473  
     427A      4.461075   428A      4.466669   429A      4.474850  
     430A      4.486228   431A      4.503868   432A      4.505836  
     433A      4.513770   434A      4.534828   435A      4.588444  
     436A      4.599512   437A      4.672763   438A      4.696413  
     439A      4.711341   440A      4.717930   441A      4.728513  
     442A      4.737122   443A      4.765649   444A      4.768331  
     445A      4.790695   446A      4.791229   447A      4.818500  
     448A      4.877869   449A      4.878495   450A      4.925012  
     451A      4.941239   452A      4.946569   453A      4.988684  
     454A      5.028341   455A      5.036092   456A      5.072033  
     457A      5.076672   458A      5.088910   459A      5.111816  
     460A      5.116201   461A      5.132932   462A      5.136194  
     463A      5.159269   464A      5.172292   465A      5.176111  
     466A      5.176749   467A      5.182111   468A      5.193526  
     469A      5.234714   470A      5.238243   471A      5.336426  
     472A      5.339412   473A      5.344535   474A      5.389684  
     475A      5.434376   476A      5.434951   477A      5.437742  
     478A      5.444539   479A      5.512721   480A      5.542193  
     481A      5.618970   482A      5.745980   483A      5.757586  
     484A      5.787068   485A      5.789088   486A      5.851377  
     487A      5.878548   488A      5.979084   489A      5.986177  
     490A      6.193155   491A      6.220035   492A      6.265212  
     493A      6.266663   494A      6.372040   495A      6.387800  
     496A      6.393353   497A      6.647849   498A      6.663080  
     499A      6.865278   500A      6.874400   501A      7.023174  
     502A      7.222537   503A      7.437305   504A      8.010883  
     505A     16.050605   506A     16.053597   507A     17.819005  
     508A     19.426800   509A     19.511649   510A     19.569303  

    Final Occupation by Irrep:
              A 
    DOCC [    30 ]

  @DF-RHF Final Energy:  -629.49486818000435

   => Energetics <=

    Nuclear Repulsion Energy =            313.1799978822999719
    One-Electron Energy =               -1483.4944275915052003
    Two-Electron Energy =                 540.8195615292009961
    Total Energy =                       -629.4948681800043460

Computation Completed


Properties will be evaluated at   0.000000,   0.000000,   0.000000 [a0]

Properties computed using the SCF density matrix

  Nuclear Dipole Moment: [e a0]
     X:     0.0000      Y:    -0.0000      Z:     3.1396

  Electronic Dipole Moment: [e a0]
     X:     0.0000      Y:     0.0000      Z:    -2.5344

  Dipole Moment: [e a0]
     X:     0.0000      Y:     0.0000      Z:     0.6051     Total:     0.6051

  Dipole Moment: [D]
     X:     0.0000      Y:     0.0000      Z:     1.5381     Total:     1.5381


*** tstop() called on node51.bme.utexas.edu at Tue Sep 10 11:12:46 2019
Module time:
	user time   =     129.71 seconds =       2.16 minutes
	system time =       4.47 seconds =       0.07 minutes
	total time  =         38 seconds =       0.63 minutes
Total time:
	user time   =     129.71 seconds =       2.16 minutes
	system time =       4.47 seconds =       0.07 minutes
	total time  =         38 seconds =       0.63 minutes

  //>>>>>>>>>>>>>>>>>>>>>>>>>>>>>>>>>>>//
  //            Monomer A HF           //
  //<<<<<<<<<<<<<<<<<<<<<<<<<<<<<<<<<<<//


*** tstart() called on node51.bme.utexas.edu
*** at Tue Sep 10 11:12:46 2019

   => Loading Basis Set <=

    Name: AUG-CC-PVTZ
    Role: ORBITAL
    Keyword: BASIS
    atoms 1-6         entry C          line   235 file /home/xy3866/psi4conda/share/psi4/basis/aug-cc-pvtz.gbs 
    atoms 7-12, 14-15 entry H          line    36 file /home/xy3866/psi4conda/share/psi4/basis/aug-cc-pvtz.gbs 
    atoms 13          entry S          line   902 file /home/xy3866/psi4conda/share/psi4/basis/aug-cc-pvtz.gbs 


         ---------------------------------------------------------
                                   SCF
               by Justin Turney, Rob Parrish, Andy Simmonett
                          and Daniel G. A. Smith
                              RHF Reference
                        4 Threads,  30517 MiB Core
         ---------------------------------------------------------

  ==> Geometry <==

    Molecular point group: c1
    Full point group: C2v

    Geometry (in Angstrom), charge = 0, multiplicity = 1:

       Center              X                  Y                   Z               Mass       
    ------------   -----------------  -----------------  -----------------  -----------------
         C            0.000000000000    -1.393658000000     1.179701852667    12.000000000000
         C            1.207737000000    -0.696816000000     1.178476852667    12.000000000000
         C            1.207737000000     0.696816000000     1.178476852667    12.000000000000
         C            0.000000000000     1.393658000000     1.179701852667    12.000000000000
         C           -1.207737000000     0.696816000000     1.178476852667    12.000000000000
         C           -1.207737000000    -0.696816000000     1.178476852667    12.000000000000
         H            0.000000000000    -2.475320000000     1.184975852667     1.007825032230
         H            2.144314000000    -1.237314000000     1.177577852667     1.007825032230
         H            2.144314000000     1.237314000000     1.177577852667     1.007825032230
         H            0.000000000000     2.475320000000     1.184975852667     1.007825032230
         H           -2.144314000000     1.237314000000     1.177577852667     1.007825032230
         H           -2.144314000000    -1.237314000000     1.177577852667     1.007825032230
      Gh(S)           0.000000000000     0.000000000000    -2.762826747333    31.972071174400
      Gh(H)           0.000000000000     0.954437000000    -1.826758747333     1.007825032230
      Gh(H)           0.000000000000    -0.954437000000    -1.826758747333     1.007825032230

  Running in c1 symmetry.

  Rotational constants: A =      0.09427  B =      0.03764  C =      0.03750 [cm^-1]
  Rotational constants: A =   2826.03195  B =   1128.55604  C =   1124.21532 [MHz]
  Nuclear repulsion =  203.653891607934128

  Charge       = 0
  Multiplicity = 1
  Electrons    = 42
  Nalpha       = 21
  Nbeta        = 21

  ==> Algorithm <==

  SCF Algorithm Type is DF.
  DIIS enabled.
  MOM disabled.
  Fractional occupation disabled.
  Guess Type is SAD.
  Energy threshold   = 1.00e-08
  Density threshold  = 1.00e-08
  Integral threshold = 0.00e+00

  ==> Primary Basis <==

  Basis Set: AUG-CC-PVTZ
    Blend: AUG-CC-PVTZ
    Number of shells: 172
    Number of basis function: 510
    Number of Cartesian functions: 589
    Spherical Harmonics?: true
    Max angular momentum: 3

   => Loading Basis Set <=

    Name: (AUG-CC-PVTZ AUX)
    Role: JKFIT
    Keyword: DF_BASIS_SCF
    atoms 1-6         entry C          line   162 file /home/xy3866/psi4conda/share/psi4/basis/aug-cc-pvtz-jkfit.gbs 
    atoms 7-12, 14-15 entry H          line    70 file /home/xy3866/psi4conda/share/psi4/basis/aug-cc-pvtz-jkfit.gbs 
    atoms 13          entry S          line   730 file /home/xy3866/psi4conda/share/psi4/basis/aug-cc-pvtz-jkfit.gbs 

  ==> Pre-Iterations <==

   -------------------------------------------------------
    Irrep   Nso     Nmo     Nalpha   Nbeta   Ndocc  Nsocc
   -------------------------------------------------------
     A        510     510       0       0       0       0
   -------------------------------------------------------
    Total     510     510      21      21      21       0
   -------------------------------------------------------

  ==> Integral Setup <==

  ==> DiskDFJK: Density-Fitted J/K Matrices <==

    J tasked:                  Yes
    K tasked:                  Yes
    wK tasked:                  No
    OpenMP threads:              4
    Integrals threads:           4
    Memory [MiB]:            22888
    Algorithm:                Core
    Integral Cache:           LOAD
    Schwarz Cutoff:          1E-12
    Fitting Condition:       1E-10

   => Auxiliary Basis Set <=

  Basis Set: (AUG-CC-PVTZ AUX)
    Blend: AUG-CC-PVTZ-JKFIT
    Number of shells: 334
    Number of basis function: 1138
    Number of Cartesian functions: 1406
    Spherical Harmonics?: true
    Max angular momentum: 4

  Minimum eigenvalue in the overlap matrix is 2.6549750146E-07.
  Using Symmetric Orthogonalization.

  SCF Guess: Superposition of Atomic Densities via on-the-fly atomic UHF.

  ==> Iterations <==

                           Total Energy        Delta E     RMS |[F,P]|

   @DF-RHF iter SAD:  -230.19001543398468   -2.30190e+02   0.00000e+00 
   @DF-RHF iter   1:  -230.60091313135285   -4.10898e-01   1.07223e-03 DIIS
   @DF-RHF iter   2:  -230.74287321982050   -1.41960e-01   5.31569e-04 DIIS
   @DF-RHF iter   3:  -230.77974316178339   -3.68699e-02   8.49856e-05 DIIS
   @DF-RHF iter   4:  -230.78129110468166   -1.54794e-03   1.05023e-05 DIIS
   @DF-RHF iter   5:  -230.78132002122075   -2.89165e-05   1.91372e-06 DIIS
   @DF-RHF iter   6:  -230.78132104344994   -1.02223e-06   2.18408e-07 DIIS
   @DF-RHF iter   7:  -230.78132105919815   -1.57482e-08   3.41804e-08 DIIS
   @DF-RHF iter   8:  -230.78132105951568   -3.17527e-10   1.45976e-08 DIIS
   @DF-RHF iter   9:  -230.78132105955842   -4.27463e-11   2.99588e-09 DIIS
  Energy and wave function converged.


  ==> Post-Iterations <==

    Orbital Energies [Eh]
    ---------------------

    Doubly Occupied:                                                      

       1A    -11.236368     2A    -11.235824     3A    -11.235759  
       4A    -11.234581     5A    -11.234513     6A    -11.233940  
       7A     -1.150195     8A     -1.014915     9A     -1.014533  
      10A     -0.824201    11A     -0.824036    12A     -0.709615  
      13A     -0.644245    14A     -0.619040    15A     -0.588284  
      16A     -0.587879    17A     -0.502284    18A     -0.494965  
      19A     -0.494870    20A     -0.336886    21A     -0.336603  

    Virtual:                                                              

      22A      0.027434    23A      0.034524    24A      0.034643  
      25A      0.041876    26A      0.047998    27A      0.048042  
      28A      0.060682    29A      0.064503    30A      0.090430  
      31A      0.097891    32A      0.102405    33A      0.103001  
      34A      0.104878    35A      0.110999    36A      0.113824  
      37A      0.122797    38A      0.123694    39A      0.126328  
      40A      0.127760    41A      0.127815    42A      0.129849  
      43A      0.136936    44A      0.150118    45A      0.154339  
      46A      0.155852    47A      0.157535    48A      0.158186  
      49A      0.158349    50A      0.160547    51A      0.165545  
      52A      0.166864    53A      0.183738    54A      0.231212  
      55A      0.243296    56A      0.243745    57A      0.245706  
      58A      0.253025    59A      0.253599    60A      0.285297  
      61A      0.287615    62A      0.287925    63A      0.296574  
      64A      0.298459    65A      0.300833    66A      0.308213  
      67A      0.312538    68A      0.316671    69A      0.322471  
      70A      0.324743    71A      0.329764    72A      0.339786  
      73A      0.342315    74A      0.344081    75A      0.348596  
      76A      0.349298    77A      0.355730    78A      0.357571  
      79A      0.363303    80A      0.364106    81A      0.377514  
      82A      0.381738    83A      0.389866    84A      0.392570  
      85A      0.395028    86A      0.401637    87A      0.410582  
      88A      0.435837    89A      0.437438    90A      0.449204  
      91A      0.451142    92A      0.455218    93A      0.456691  
      94A      0.470674    95A      0.472987    96A      0.479254  
      97A      0.479525    98A      0.487032    99A      0.492895  
     100A      0.499379   101A      0.501471   102A      0.504382  
     103A      0.513132   104A      0.523377   105A      0.524124  
     106A      0.527236   107A      0.534184   108A      0.534637  
     109A      0.547134   110A      0.547146   111A      0.551935  
     112A      0.553119   113A      0.555634   114A      0.562076  
     115A      0.582393   116A      0.603451   117A      0.612732  
     118A      0.622286   119A      0.639978   120A      0.651322  
     121A      0.651695   122A      0.656184   123A      0.659075  
     124A      0.661460   125A      0.664625   126A      0.671928  
     127A      0.677626   128A      0.703207   129A      0.705513  
     130A      0.709584   131A      0.709856   132A      0.734214  
     133A      0.743883   134A      0.748015   135A      0.749220  
     136A      0.763982   137A      0.777310   138A      0.789969  
     139A      0.796116   140A      0.797670   141A      0.810068  
     142A      0.819685   143A      0.824395   144A      0.836925  
     145A      0.850469   146A      0.861276   147A      0.867907  
     148A      0.873595   149A      0.877384   150A      0.882114  
     151A      0.885314   152A      0.901233   153A      0.904112  
     154A      0.908550   155A      0.910217   156A      0.925144  
     157A      0.931823   158A      0.938958   159A      0.943988  
     160A      0.953058   161A      0.971847   162A      0.977000  
     163A      0.988403   164A      1.001285   165A      1.005207  
     166A      1.012667   167A      1.029426   168A      1.038881  
     169A      1.041034   170A      1.041666   171A      1.054088  
     172A      1.058473   173A      1.067236   174A      1.072655  
     175A      1.078559   176A      1.081073   177A      1.100022  
     178A      1.102696   179A      1.104746   180A      1.106537  
     181A      1.111405   182A      1.123360   183A      1.128638  
     184A      1.128938   185A      1.132895   186A      1.137662  
     187A      1.140964   188A      1.145142   189A      1.151400  
     190A      1.158554   191A      1.162082   192A      1.167351  
     193A      1.174353   194A      1.186231   195A      1.193778  
     196A      1.201105   197A      1.205917   198A      1.208426  
     199A      1.211601   200A      1.220518   201A      1.230070  
     202A      1.233431   203A      1.238789   204A      1.256628  
     205A      1.258702   206A      1.270055   207A      1.289786  
     208A      1.293243   209A      1.298592   210A      1.299466  
     211A      1.301316   212A      1.320016   213A      1.332718  
     214A      1.341607   215A      1.351989   216A      1.363997  
     217A      1.364298   218A      1.387494   219A      1.392012  
     220A      1.394053   221A      1.396705   222A      1.425489  
     223A      1.427842   224A      1.435534   225A      1.436334  
     226A      1.447085   227A      1.461955   228A      1.471535  
     229A      1.482035   230A      1.486650   231A      1.503124  
     232A      1.509348   233A      1.524214   234A      1.530524  
     235A      1.535340   236A      1.542469   237A      1.550149  
     238A      1.577650   239A      1.581624   240A      1.584690  
     241A      1.632356   242A      1.640012   243A      1.702197  
     244A      1.705592   245A      1.705654   246A      1.719393  
     247A      1.728060   248A      1.729208   249A      1.731168  
     250A      1.758188   251A      1.764678   252A      1.777864  
     253A      1.778362   254A      1.800155   255A      1.817744  
     256A      1.836176   257A      1.843374   258A      1.846847  
     259A      1.853914   260A      1.877597   261A      1.887517  
     262A      1.917639   263A      1.919598   264A      1.929318  
     265A      1.957515   266A      1.967491   267A      1.983767  
     268A      1.987051   269A      1.989367   270A      2.000751  
     271A      2.013659   272A      2.024271   273A      2.030156  
     274A      2.030350   275A      2.037025   276A      2.042444  
     277A      2.063773   278A      2.074652   279A      2.089210  
     280A      2.090194   281A      2.092020   282A      2.096132  
     283A      2.122493   284A      2.127223   285A      2.146099  
     286A      2.157259   287A      2.171370   288A      2.217965  
     289A      2.234949   290A      2.278305   291A      2.281577  
     292A      2.286456   293A      2.299638   294A      2.342854  
     295A      2.352467   296A      2.360316   297A      2.361704  
     298A      2.377129   299A      2.391045   300A      2.410408  
     301A      2.457602   302A      2.458640   303A      2.474688  
     304A      2.516860   305A      2.519695   306A      2.525363  
     307A      2.567762   308A      2.579923   309A      2.589958  
     310A      2.601516   311A      2.604981   312A      2.747714  
     313A      2.754513   314A      2.764969   315A      2.793890  
     316A      2.846925   317A      2.847981   318A      2.902628  
     319A      2.945491   320A      2.982614   321A      3.031847  
     322A      3.088376   323A      3.091525   324A      3.096252  
     325A      3.113799   326A      3.143338   327A      3.176706  
     328A      3.193847   329A      3.218581   330A      3.256111  
     331A      3.272368   332A      3.288094   333A      3.321496  
     334A      3.330133   335A      3.334092   336A      3.373869  
     337A      3.376247   338A      3.378745   339A      3.391312  
     340A      3.406008   341A      3.408318   342A      3.418965  
     343A      3.445829   344A      3.450567   345A      3.464466  
     346A      3.472853   347A      3.482360   348A      3.538881  
     349A      3.539478   350A      3.543443   351A      3.551921  
     352A      3.558279   353A      3.596681   354A      3.619876  
     355A      3.626419   356A      3.636815   357A      3.649857  
     358A      3.650596   359A      3.656122   360A      3.672242  
     361A      3.672923   362A      3.682069   363A      3.682275  
     364A      3.729677   365A      3.731892   366A      3.761773  
     367A      3.784677   368A      3.796132   369A      3.827100  
     370A      3.829589   371A      3.839916   372A      3.841192  
     373A      3.844134   374A      3.850301   375A      3.892174  
     376A      3.896150   377A      3.902607   378A      3.933193  
     379A      3.956343   380A      3.977217   381A      3.977976  
     382A      3.984450   383A      3.997140   384A      4.003864  
     385A      4.020598   386A      4.049828   387A      4.059872  
     388A      4.060250   389A      4.069006   390A      4.102571  
     391A      4.114372   392A      4.130239   393A      4.133252  
     394A      4.135685   395A      4.145226   396A      4.172349  
     397A      4.207996   398A      4.208504   399A      4.266066  
     400A      4.288217   401A      4.290536   402A      4.317115  
     403A      4.338275   404A      4.356435   405A      4.357258  
     406A      4.361395   407A      4.364654   408A      4.380995  
     409A      4.395031   410A      4.396788   411A      4.429109  
     412A      4.432433   413A      4.438617   414A      4.441336  
     415A      4.450683   416A      4.459121   417A      4.476477  
     418A      4.480913   419A      4.497169   420A      4.511007  
     421A      4.513032   422A      4.561300   423A      4.605537  
     424A      4.650913   425A      4.703462   426A      4.717151  
     427A      4.723128   428A      4.726036   429A      4.734342  
     430A      4.740791   431A      4.743244   432A      4.798221  
     433A      4.800807   434A      4.801548   435A      4.862173  
     436A      4.866064   437A      4.885607   438A      4.886070  
     439A      4.892841   440A      4.935730   441A      4.951240  
     442A      4.994577   443A      5.035235   444A      5.044858  
     445A      5.084220   446A      5.091759   447A      5.106662  
     448A      5.107252   449A      5.119763   450A      5.129707  
     451A      5.131016   452A      5.158193   453A      5.163720  
     454A      5.166869   455A      5.182800   456A      5.184181  
     457A      5.192665   458A      5.192906   459A      5.233155  
     460A      5.244845   461A      5.252507   462A      5.308260  
     463A      5.319464   464A      5.345602   465A      5.348379  
     466A      5.355015   467A      5.409780   468A      5.442067  
     469A      5.442225   470A      5.444936   471A      5.452298  
     472A      5.514677   473A      5.549710   474A      5.708448  
     475A      5.753207   476A      5.766198   477A      5.794115  
     478A      5.796580   479A      5.858212   480A      5.886173  
     481A      5.950163   482A      5.985990   483A      5.993784  
     484A      6.201008   485A      6.228015   486A      6.272388  
     487A      6.273894   488A      6.379369   489A      6.392590  
     490A      6.400414   491A      6.655229   492A      6.668354  
     493A      6.810247   494A      6.855357   495A      6.873421  
     496A      6.881380   497A      7.030617   498A      7.230095  
     499A      7.444663   500A     15.247251   501A     16.057961  
     502A     16.062723   503A     17.833741   504A     19.434161  
     505A     19.519663   506A     19.576897   507A     24.098117  
     508A     24.843069   509A     25.107642   510A    141.712979  

    Final Occupation by Irrep:
              A 
    DOCC [    21 ]

  @DF-RHF Final Energy:  -230.78132105955842

   => Energetics <=

    Nuclear Repulsion Energy =            203.6538916079341277
    One-Electron Energy =                -713.7633559145243680
    Two-Electron Energy =                 279.3281432470317895
    Total Energy =                       -230.7813210595584223

Computation Completed


Properties will be evaluated at   0.000000,   0.000000,   0.000000 [a0]

Properties computed using the SCF density matrix

  Nuclear Dipole Moment: [e a0]
     X:     0.0000      Y:    -0.0000      Z:    93.5795

  Electronic Dipole Moment: [e a0]
     X:     0.0000      Y:    -0.0000      Z:   -93.5774

  Dipole Moment: [e a0]
     X:     0.0000      Y:    -0.0000      Z:     0.0020     Total:     0.0020

  Dipole Moment: [D]
     X:     0.0000      Y:    -0.0000      Z:     0.0052     Total:     0.0052


*** tstop() called on node51.bme.utexas.edu at Tue Sep 10 11:13:06 2019
Module time:
	user time   =      71.55 seconds =       1.19 minutes
	system time =       1.29 seconds =       0.02 minutes
	total time  =         20 seconds =       0.33 minutes
Total time:
	user time   =     201.29 seconds =       3.35 minutes
	system time =       5.76 seconds =       0.10 minutes
	total time  =         58 seconds =       0.97 minutes

  //>>>>>>>>>>>>>>>>>>>>>>>>>>>>>>>>>>>//
  //            Monomer B HF           //
  //<<<<<<<<<<<<<<<<<<<<<<<<<<<<<<<<<<<//


*** tstart() called on node51.bme.utexas.edu
*** at Tue Sep 10 11:13:06 2019

   => Loading Basis Set <=

    Name: AUG-CC-PVTZ
    Role: ORBITAL
    Keyword: BASIS
    atoms 1-6         entry C          line   235 file /home/xy3866/psi4conda/share/psi4/basis/aug-cc-pvtz.gbs 
    atoms 7-12, 14-15 entry H          line    36 file /home/xy3866/psi4conda/share/psi4/basis/aug-cc-pvtz.gbs 
    atoms 13          entry S          line   902 file /home/xy3866/psi4conda/share/psi4/basis/aug-cc-pvtz.gbs 


         ---------------------------------------------------------
                                   SCF
               by Justin Turney, Rob Parrish, Andy Simmonett
                          and Daniel G. A. Smith
                              RHF Reference
                        4 Threads,  30517 MiB Core
         ---------------------------------------------------------

  ==> Geometry <==

    Molecular point group: c1
    Full point group: C2v

    Geometry (in Angstrom), charge = 0, multiplicity = 1:

       Center              X                  Y                   Z               Mass       
    ------------   -----------------  -----------------  -----------------  -----------------
      Gh(C)           0.000000000000    -1.393658000000     1.179701852667    12.000000000000
      Gh(C)           1.207737000000    -0.696816000000     1.178476852667    12.000000000000
      Gh(C)           1.207737000000     0.696816000000     1.178476852667    12.000000000000
      Gh(C)           0.000000000000     1.393658000000     1.179701852667    12.000000000000
      Gh(C)          -1.207737000000     0.696816000000     1.178476852667    12.000000000000
      Gh(C)          -1.207737000000    -0.696816000000     1.178476852667    12.000000000000
      Gh(H)           0.000000000000    -2.475320000000     1.184975852667     1.007825032230
      Gh(H)           2.144314000000    -1.237314000000     1.177577852667     1.007825032230
      Gh(H)           2.144314000000     1.237314000000     1.177577852667     1.007825032230
      Gh(H)           0.000000000000     2.475320000000     1.184975852667     1.007825032230
      Gh(H)          -2.144314000000     1.237314000000     1.177577852667     1.007825032230
      Gh(H)          -2.144314000000    -1.237314000000     1.177577852667     1.007825032230
         S            0.000000000000     0.000000000000    -2.762826747333    31.972071174400
         H            0.000000000000     0.954437000000    -1.826758747333     1.007825032230
         H            0.000000000000    -0.954437000000    -1.826758747333     1.007825032230

  Running in c1 symmetry.

  Rotational constants: A =      0.09427  B =      0.03764  C =      0.03750 [cm^-1]
  Rotational constants: A =   2826.03195  B =   1128.55604  C =   1124.21532 [MHz]
  Nuclear repulsion =   12.944044801570231

  Charge       = 0
  Multiplicity = 1
  Electrons    = 18
  Nalpha       = 9
  Nbeta        = 9

  ==> Algorithm <==

  SCF Algorithm Type is DF.
  DIIS enabled.
  MOM disabled.
  Fractional occupation disabled.
  Guess Type is SAD.
  Energy threshold   = 1.00e-08
  Density threshold  = 1.00e-08
  Integral threshold = 0.00e+00

  ==> Primary Basis <==

  Basis Set: AUG-CC-PVTZ
    Blend: AUG-CC-PVTZ
    Number of shells: 172
    Number of basis function: 510
    Number of Cartesian functions: 589
    Spherical Harmonics?: true
    Max angular momentum: 3

   => Loading Basis Set <=

    Name: (AUG-CC-PVTZ AUX)
    Role: JKFIT
    Keyword: DF_BASIS_SCF
    atoms 1-6         entry C          line   162 file /home/xy3866/psi4conda/share/psi4/basis/aug-cc-pvtz-jkfit.gbs 
    atoms 7-12, 14-15 entry H          line    70 file /home/xy3866/psi4conda/share/psi4/basis/aug-cc-pvtz-jkfit.gbs 
    atoms 13          entry S          line   730 file /home/xy3866/psi4conda/share/psi4/basis/aug-cc-pvtz-jkfit.gbs 

  ==> Pre-Iterations <==

   -------------------------------------------------------
    Irrep   Nso     Nmo     Nalpha   Nbeta   Ndocc  Nsocc
   -------------------------------------------------------
     A        510     510       0       0       0       0
   -------------------------------------------------------
    Total     510     510       9       9       9       0
   -------------------------------------------------------

  ==> Integral Setup <==

  ==> DiskDFJK: Density-Fitted J/K Matrices <==

    J tasked:                  Yes
    K tasked:                  Yes
    wK tasked:                  No
    OpenMP threads:              4
    Integrals threads:           4
    Memory [MiB]:            22888
    Algorithm:                Core
    Integral Cache:           LOAD
    Schwarz Cutoff:          1E-12
    Fitting Condition:       1E-10

   => Auxiliary Basis Set <=

  Basis Set: (AUG-CC-PVTZ AUX)
    Blend: AUG-CC-PVTZ-JKFIT
    Number of shells: 334
    Number of basis function: 1138
    Number of Cartesian functions: 1406
    Spherical Harmonics?: true
    Max angular momentum: 4

  Minimum eigenvalue in the overlap matrix is 2.6549750146E-07.
  Using Symmetric Orthogonalization.

  SCF Guess: Superposition of Atomic Densities via on-the-fly atomic UHF.

  ==> Iterations <==

                           Total Energy        Delta E     RMS |[F,P]|

   @DF-RHF iter SAD:  -398.42061468352324   -3.98421e+02   0.00000e+00 
   @DF-RHF iter   1:  -398.67948106681570   -2.58866e-01   4.21339e-04 DIIS
   @DF-RHF iter   2:  -398.70926232227743   -2.97813e-02   1.59195e-04 DIIS
   @DF-RHF iter   3:  -398.71299464537310   -3.73232e-03   3.90843e-05 DIIS
   @DF-RHF iter   4:  -398.71369821260686   -7.03567e-04   7.72248e-06 DIIS
   @DF-RHF iter   5:  -398.71372800447222   -2.97919e-05   1.14486e-06 DIIS
   @DF-RHF iter   6:  -398.71372858548250   -5.81010e-07   2.92110e-07 DIIS
   @DF-RHF iter   7:  -398.71372862565846   -4.01760e-08   7.38149e-08 DIIS
   @DF-RHF iter   8:  -398.71372862822301   -2.56455e-09   1.31055e-08 DIIS
   @DF-RHF iter   9:  -398.71372862828929   -6.62794e-11   2.53592e-09 DIIS
  Energy and wave function converged.


  ==> Post-Iterations <==

    Orbital Energies [Eh]
    ---------------------

    Doubly Occupied:                                                      

       1A    -91.966942     2A     -8.969036     3A     -6.650307  
       4A     -6.649540     5A     -6.648236     6A     -0.982627  
       7A     -0.587483     8A     -0.503597     9A     -0.385515  

    Virtual:                                                              

      10A      0.016303    11A      0.029694    12A      0.031422  
      13A      0.044229    14A      0.047253    15A      0.047414  
      16A      0.059651    17A      0.064878    18A      0.070533  
      19A      0.087274    20A      0.089950    21A      0.091893  
      22A      0.098888    23A      0.102824    24A      0.116574  
      25A      0.120882    26A      0.121051    27A      0.124039  
      28A      0.124415    29A      0.125635    30A      0.127084  
      31A      0.142382    32A      0.144720    33A      0.152799  
      34A      0.156895    35A      0.156955    36A      0.160931  
      37A      0.162528    38A      0.165242    39A      0.168251  
      40A      0.182465    41A      0.192255    42A      0.205344  
      43A      0.213360    44A      0.216781    45A      0.226073  
      46A      0.232427    47A      0.242335    48A      0.251191  
      49A      0.264068    50A      0.275207    51A      0.283088  
      52A      0.290472    53A      0.291489    54A      0.298277  
      55A      0.313884    56A      0.318348    57A      0.320049  
      58A      0.320582    59A      0.327424    60A      0.328168  
      61A      0.330608    62A      0.339092    63A      0.350937  
      64A      0.353088    65A      0.358520    66A      0.360580  
      67A      0.361245    68A      0.371173    69A      0.374109  
      70A      0.375958    71A      0.383593    72A      0.396045  
      73A      0.399025    74A      0.401015    75A      0.418701  
      76A      0.421897    77A      0.423913    78A      0.434464  
      79A      0.434771    80A      0.434836    81A      0.452386  
      82A      0.456208    83A      0.458444    84A      0.475493  
      85A      0.479197    86A      0.488972    87A      0.496583  
      88A      0.496932    89A      0.504681    90A      0.516968  
      91A      0.526065    92A      0.532440    93A      0.536232  
      94A      0.548194    95A      0.553700    96A      0.561116  
      97A      0.568994    98A      0.581040    99A      0.583787  
     100A      0.584144   101A      0.616193   102A      0.617104  
     103A      0.618878   104A      0.620153   105A      0.620839  
     106A      0.628975   107A      0.643328   108A      0.643831  
     109A      0.649214   110A      0.665140   111A      0.666117  
     112A      0.673305   113A      0.677824   114A      0.683988  
     115A      0.688295   116A      0.700378   117A      0.700767  
     118A      0.705136   119A      0.710377   120A      0.720474  
     121A      0.721133   122A      0.726603   123A      0.739150  
     124A      0.744796   125A      0.746331   126A      0.760805  
     127A      0.763715   128A      0.787478   129A      0.788510  
     130A      0.791816   131A      0.795377   132A      0.798292  
     133A      0.803237   134A      0.809187   135A      0.844204  
     136A      0.846423   137A      0.852881   138A      0.861335  
     139A      0.874441   140A      0.888942   141A      0.893295  
     142A      0.907651   143A      0.913682   144A      0.924419  
     145A      0.926491   146A      0.957130   147A      0.957867  
     148A      0.976560   149A      0.983581   150A      0.991216  
     151A      1.011161   152A      1.016667   153A      1.016993  
     154A      1.023932   155A      1.039070   156A      1.054614  
     157A      1.059634   158A      1.060088   159A      1.062204  
     160A      1.069173   161A      1.077262   162A      1.083062  
     163A      1.093932   164A      1.113420   165A      1.115039  
     166A      1.127511   167A      1.134702   168A      1.139480  
     169A      1.151867   170A      1.158559   171A      1.178363  
     172A      1.178572   173A      1.180729   174A      1.184375  
     175A      1.189953   176A      1.192704   177A      1.193508  
     178A      1.215068   179A      1.218260   180A      1.232637  
     181A      1.239754   182A      1.253153   183A      1.257074  
     184A      1.260751   185A      1.270680   186A      1.276706  
     187A      1.283193   188A      1.298616   189A      1.300834  
     190A      1.303212   191A      1.307061   192A      1.307874  
     193A      1.308402   194A      1.310328   195A      1.314978  
     196A      1.320621   197A      1.333410   198A      1.343351  
     199A      1.357041   200A      1.371242   201A      1.381185  
     202A      1.383329   203A      1.385250   204A      1.392463  
     205A      1.409491   206A      1.422790   207A      1.441009  
     208A      1.449902   209A      1.457535   210A      1.493558  
     211A      1.498911   212A      1.524252   213A      1.539159  
     214A      1.541650   215A      1.544669   216A      1.546581  
     217A      1.551973   218A      1.563387   219A      1.566303  
     220A      1.570213   221A      1.570696   222A      1.576900  
     223A      1.577205   224A      1.598723   225A      1.606670  
     226A      1.613555   227A      1.641789   228A      1.660822  
     229A      1.663656   230A      1.666630   231A      1.678019  
     232A      1.682960   233A      1.693372   234A      1.703742  
     235A      1.707276   236A      1.727239   237A      1.737245  
     238A      1.746229   239A      1.792074   240A      1.825558  
     241A      1.832252   242A      1.840964   243A      1.854252  
     244A      1.860335   245A      1.872937   246A      1.889164  
     247A      1.894576   248A      1.898532   249A      1.899564  
     250A      1.927235   251A      1.953034   252A      1.981431  
     253A      2.000971   254A      2.013259   255A      2.013888  
     256A      2.043915   257A      2.081967   258A      2.096973  
     259A      2.127387   260A      2.149059   261A      2.151381  
     262A      2.152669   263A      2.167175   264A      2.170465  
     265A      2.172760   266A      2.182298   267A      2.198251  
     268A      2.216432   269A      2.216473   270A      2.230495  
     271A      2.243516   272A      2.244987   273A      2.275289  
     274A      2.303331   275A      2.323572   276A      2.323815  
     277A      2.328614   278A      2.339982   279A      2.340236  
     280A      2.346007   281A      2.350115   282A      2.359530  
     283A      2.371696   284A      2.379676   285A      2.386317  
     286A      2.391290   287A      2.394114   288A      2.396808  
     289A      2.402333   290A      2.471195   291A      2.480087  
     292A      2.491191   293A      2.501060   294A      2.506059  
     295A      2.520448   296A      2.521298   297A      2.526416  
     298A      2.535941   299A      2.541162   300A      2.541358  
     301A      2.548395   302A      2.550891   303A      2.609179  
     304A      2.613500   305A      2.619480   306A      2.669204  
     307A      2.675082   308A      2.729657   309A      2.741997  
     310A      2.745204   311A      2.772164   312A      2.791334  
     313A      2.813022   314A      2.832319   315A      2.839902  
     316A      2.876083   317A      2.880250   318A      2.891697  
     319A      2.924520   320A      2.973889   321A      3.036426  
     322A      3.091645   323A      3.093609   324A      3.128353  
     325A      3.132698   326A      3.279790   327A      3.282766  
     328A      3.291152   329A      3.488043   330A      3.488179  
     331A      3.548743   332A      3.592475   333A      3.720747  
     334A      3.781952   335A      3.819251   336A      3.838840  
     337A      3.881427   338A      3.939242   339A      3.952277  
     340A      3.953238   341A      3.979607   342A      3.982658  
     343A      3.996296   344A      4.022946   345A      4.037866  
     346A      4.053458   347A      4.060633   348A      4.099224  
     349A      4.099496   350A      4.117462   351A      4.121693  
     352A      4.125105   353A      4.157669   354A      4.157719  
     355A      4.177914   356A      4.199636   357A      4.213434  
     358A      4.218902   359A      4.219986   360A      4.239302  
     361A      4.245128   362A      4.264723   363A      4.278299  
     364A      4.282884   365A      4.299302   366A      4.306193  
     367A      4.329959   368A      4.349014   369A      4.369306  
     370A      4.377068   371A      4.396310   372A      4.429465  
     373A      4.470007   374A      4.473214   375A      4.474759  
     376A      4.474934   377A      4.510181   378A      4.526532  
     379A      4.533645   380A      4.555213   381A      4.558882  
     382A      4.566705   383A      4.567842   384A      4.577909  
     385A      4.582548   386A      4.590829   387A      4.591896  
     388A      4.601038   389A      4.615068   390A      4.638140  
     391A      4.671653   392A      4.678543   393A      4.710443  
     394A      4.718306   395A      4.748333   396A      4.771417  
     397A      4.788579   398A      4.820302   399A      4.821245  
     400A      4.842756   401A      4.886090   402A      4.955637  
     403A      4.962694   404A      4.970776   405A      4.974502  
     406A      4.983836   407A      5.008084   408A      5.053794  
     409A      5.054093   410A      5.085922   411A      5.103124  
     412A      5.105388   413A      5.113208   414A      5.149838  
     415A      5.152683   416A      5.172898   417A      5.172959  
     418A      5.176761   419A      5.208417   420A      5.210036  
     421A      5.211117   422A      5.270685   423A      5.277539  
     424A      5.402245   425A      5.412318   426A      5.426558  
     427A      5.446517   428A      5.451839   429A      5.487690  
     430A      5.497678   431A      5.497810   432A      5.522336  
     433A      5.609544   434A      5.621645   435A      5.626594  
     436A      5.659813   437A      5.684050   438A      5.688111  
     439A      5.711171   440A      5.726203   441A      5.728193  
     442A      5.730515   443A      5.785283   444A      5.791587  
     445A      5.791875   446A      5.797814   447A      5.798059  
     448A      5.827363   449A      5.897896   450A      5.958334  
     451A      5.962652   452A      5.997777   453A      6.002604  
     454A      6.128480   455A      6.129218   456A      6.166883  
     457A      6.188375   458A      6.192697   459A      6.193060  
     460A      6.207021   461A      6.429939   462A      6.431094  
     463A      6.459462   464A      6.462133   465A      6.517599  
     466A      6.702924   467A      6.783374   468A      6.805951  
     469A      6.881091   470A      6.884117   471A      7.013853  
     472A      7.061248   473A      7.064592   474A      7.111596  
     475A      7.144191   476A      7.150987   477A      7.157961  
     478A      7.391768   479A      7.476775   480A      7.493127  
     481A      7.571686   482A      7.653605   483A      7.660396  
     484A      7.783399   485A      7.886930   486A      7.993825  
     487A      8.004908   488A      8.189403   489A      8.193188  
     490A      8.206101   491A      8.325019   492A      8.325847  
     493A      8.958557   494A      8.959275   495A      9.360688  
     496A      9.379702   497A      9.443202   498A     10.041292  
     499A     10.042098   500A     10.979951   501A     11.033069  
     502A     11.306526   503A     11.328377   504A     11.361925  
     505A     49.669980   506A     49.671637   507A     51.429017  
     508A     55.514314   509A     55.667994   510A     56.636254  

    Final Occupation by Irrep:
              A 
    DOCC [     9 ]

  @DF-RHF Final Energy:  -398.71372862828929

   => Energetics <=

    Nuclear Repulsion Energy =             12.9440448015702305
    One-Electron Energy =                -576.6289786690110759
    Two-Electron Energy =                 164.9712052391515442
    Total Energy =                       -398.7137286282892319

Computation Completed


Properties will be evaluated at   0.000000,   0.000000,   0.000000 [a0]

Properties computed using the SCF density matrix

  Nuclear Dipole Moment: [e a0]
     X:     0.0000      Y:     0.0000      Z:   -90.4399

  Electronic Dipole Moment: [e a0]
     X:     0.0000      Y:     0.0000      Z:    90.8672

  Dipole Moment: [e a0]
     X:     0.0000      Y:     0.0000      Z:     0.4273     Total:     0.4273

  Dipole Moment: [D]
     X:     0.0000      Y:     0.0000      Z:     1.0861     Total:     1.0861


*** tstop() called on node51.bme.utexas.edu at Tue Sep 10 11:13:24 2019
Module time:
	user time   =      63.80 seconds =       1.06 minutes
	system time =       1.15 seconds =       0.02 minutes
	total time  =         18 seconds =       0.30 minutes
Total time:
	user time   =     265.11 seconds =       4.42 minutes
	system time =       6.91 seconds =       0.12 minutes
	total time  =         76 seconds =       1.27 minutes
  Constructing Basis Sets for SAPT...

   => Loading Basis Set <=

    Name: (AUG-CC-PVTZ AUX)
    Role: RIFIT
    Keyword: DF_BASIS_SAPT
    atoms 1-6         entry C          line   148 file /home/xy3866/psi4conda/share/psi4/basis/aug-cc-pvtz-ri.gbs 
    atoms 7-12, 14-15 entry H          line    30 file /home/xy3866/psi4conda/share/psi4/basis/aug-cc-pvtz-ri.gbs 
    atoms 13          entry S          line   666 file /home/xy3866/psi4conda/share/psi4/basis/aug-cc-pvtz-ri.gbs 


  //>>>>>>>>>>>>>>>>>>>>>>>>>>>>>>>>>>>//
  //               SAPT2+              //
  //<<<<<<<<<<<<<<<<<<<<<<<<<<<<<<<<<<<//


*** tstart() called on node51.bme.utexas.edu
*** at Tue Sep 10 11:13:24 2019

        SAPT2+  
    Ed Hohenstein
     6 June 2009

      Orbital Information
  --------------------------
    NSO        =       510
    NMO        =       510
    NRI        =      1151
    NOCC A     =        21
    NOCC B     =         9
    FOCC A     =         6
    FOCC B     =         5
    NVIR A     =       489
    NVIR B     =       501

    Estimated memory usage: 4967.8 MB

    Natural Orbital Cutoff:   1.000E-06
    Disp(T3) Truncation:            Yes
    CCD (vv|vv) Truncation:         Yes
    MBPT T2 Truncation:             Yes

    Monomer A: 142 virtual orbitals dropped
    Monomer B: 416 virtual orbitals dropped

    Elst10,r            =    -0.002983564017 [Eh]
    Exch10 (S^2)        =     0.004042456439 [Eh]
    Exch10              =     0.004044830116 [Eh]
    Ind20,r (A<-B)      =    -0.000682752427 [Eh]
    Ind20,r (B<-A)      =    -0.000527566979 [Eh]
    Ind20,r             =    -0.001210319406 [Eh]
    Exch-Ind20,r (A<-B) =     0.000405758446 [Eh]
    Exch-Ind20,r (B<-A) =     0.000412781961 [Eh]
    Exch-Ind20,r        =     0.000818540407 [Eh]
    Disp20              =    -0.006453156858 [Eh]
    Disp20 (NO)         =    -0.005928890867 [Eh]
    Exch-Disp20         =     0.000584021316 [Eh]
    Elst12,r            =     0.000240988748 [Eh]
    Exch11              =     0.000294034541 [Eh]
    Exch12              =    -0.000144043015 [Eh]
    Ind22               =    -0.000044138860 [Eh]
    Disp21              =     0.001435753674 [Eh]
    Disp22 (SDQ)        =     0.000376370635 [Eh]

    (i =   1 of   4)        120 seconds
    (i =   2 of   4)        244 seconds
    (i =   3 of   4)        365 seconds
    (i =   4 of   4)        488 seconds

    Disp220 (T)         =    -0.000689816863 [Eh]

    (i =   1 of  15)          6 seconds
    (i =   2 of  15)         11 seconds
    (i =   3 of  15)         17 seconds
    (i =   4 of  15)         23 seconds
    (i =   5 of  15)         29 seconds
    (i =   6 of  15)         34 seconds
    (i =   7 of  15)         40 seconds
    (i =   8 of  15)         46 seconds
    (i =   9 of  15)         52 seconds
    (i =  10 of  15)         57 seconds
    (i =  11 of  15)         63 seconds
    (i =  12 of  15)         69 seconds
    (i =  13 of  15)         74 seconds
    (i =  14 of  15)         80 seconds
    (i =  15 of  15)         86 seconds

    Disp202 (T)         =    -0.000485460331 [Eh]

    Disp22 (T)          =    -0.001175277195 [Eh]

    Est. Disp220 (T)    =    -0.000750814364 [Eh]
    Est. Disp202 (T)    =    -0.000528387473 [Eh]

    Est. Disp22 (T)     =    -0.001279201837 [Eh]

    SAPT Results 
  --------------------------------------------------------------------------------------------------------
    Electrostatics                 -2.74257527 [mEh]      -1.72099196 [kcal/mol]      -7.20063038 [kJ/mol]
      Elst10,r                     -2.98356402 [mEh]      -1.87221469 [kcal/mol]      -7.83334625 [kJ/mol]
      Elst12,r                      0.24098875 [mEh]       0.15122272 [kcal/mol]       0.63271587 [kJ/mol]

    Exchange                        4.19482164 [mEh]       2.63229032 [kcal/mol]      11.01350270 [kJ/mol]
      Exch10                        4.04483012 [mEh]       2.53816922 [kcal/mol]      10.61970001 [kJ/mol]
      Exch10(S^2)                   4.04245644 [mEh]       2.53667971 [kcal/mol]      10.61346792 [kJ/mol]
      Exch11(S^2)                   0.29403454 [mEh]       0.18450946 [kcal/mol]       0.77198758 [kJ/mol]
      Exch12(S^2)                  -0.14404301 [mEh]      -0.09038836 [kcal/mol]      -0.37818488 [kJ/mol]

    Induction                      -0.89404595 [mEh]      -0.56102231 [kcal/mol]      -2.34731733 [kJ/mol]
      Ind20,r                      -1.21031941 [mEh]      -0.75948689 [kcal/mol]      -3.17769316 [kJ/mol]
      Ind22                        -0.04413886 [mEh]      -0.02769755 [kcal/mol]      -0.11588656 [kJ/mol]
      Exch-Ind20,r                  0.81854041 [mEh]       0.51364186 [kcal/mol]       2.14907754 [kJ/mol]
      Exch-Ind22                    0.02985116 [mEh]       0.01873189 [kcal/mol]       0.07837421 [kJ/mol]
      delta HF,r (2)               -0.48797926 [mEh]      -0.30621161 [kcal/mol]      -1.28118936 [kJ/mol]

    Dispersion                     -5.33621307 [mEh]      -3.34852426 [kcal/mol]     -14.01022549 [kJ/mol]
      Disp20                       -6.45315686 [mEh]      -4.04941706 [kcal/mol]     -16.94276100 [kJ/mol]
      Disp21                        1.43575367 [mEh]       0.90094903 [kcal/mol]       3.76957075 [kJ/mol]
      Disp22 (SDQ)                  0.37637063 [mEh]       0.23617614 [kcal/mol]       0.98816097 [kJ/mol]
      Disp22 (T)                   -1.17527719 [mEh]      -0.73749757 [kcal/mol]      -3.08568985 [kJ/mol]
      Est. Disp22 (T)              -1.27920184 [mEh]      -0.80271127 [kcal/mol]      -3.35854396 [kJ/mol]
      Exch-Disp20                   0.58402132 [mEh]       0.36647891 [kcal/mol]       1.53334775 [kJ/mol]

  Total HF                          0.18150784 [mEh]       0.11389789 [kcal/mol]       0.47654878 [kJ/mol]
  Total SAPT0                      -5.68762770 [mEh]      -3.56904026 [kcal/mol]     -14.93286447 [kJ/mol]
  Total SAPT2                      -5.31093512 [mEh]      -3.33266210 [kcal/mol]     -13.94385824 [kJ/mol]
  Total SAPT2+                     -4.77801265 [mEh]      -2.99824820 [kcal/mol]     -12.54467049 [kJ/mol]

  Special recipe for scaled SAPT0 (see Manual):
    Electrostatics sSAPT0          -2.98356402 [mEh]      -1.87221469 [kcal/mol]      -7.83334625 [kJ/mol]
    Exchange sSAPT0                 4.04483012 [mEh]       2.53816922 [kcal/mol]      10.61970001 [kJ/mol]
    Induction sSAPT0               -0.87831550 [mEh]      -0.55115130 [kcal/mol]      -2.30601703 [kJ/mol]
    Dispersion sSAPT0              -5.86810615 [mEh]      -3.68229220 [kcal/mol]     -15.40671057 [kJ/mol]
  Total sSAPT0                     -5.68515555 [mEh]      -3.56748897 [kcal/mol]     -14.92637384 [kJ/mol]
  --------------------------------------------------------------------------------------------------------

*** tstop() called on node51.bme.utexas.edu at Tue Sep 10 11:40:31 2019
Module time:
	user time   =    5476.69 seconds =      91.28 minutes
	system time =     141.15 seconds =       2.35 minutes
	total time  =       1627 seconds =      27.12 minutes
Total time:
	user time   =    5742.01 seconds =      95.70 minutes
	system time =     148.06 seconds =       2.47 minutes
	total time  =       1703 seconds =      28.38 minutes

    Psi4 stopped on: Tuesday, 10 September 2019 11:40AM
    Psi4 wall time for execution: 0:28:23.18

*** Psi4 exiting successfully. Buy a developer a beer!
