
    -----------------------------------------------------------------------
          Psi4: An Open-Source Ab Initio Electronic Structure Package
                               Psi4 1.3.2 release

                         Git: Rev {HEAD} ecbda83 


    R. M. Parrish, L. A. Burns, D. G. A. Smith, A. C. Simmonett,
    A. E. DePrince III, E. G. Hohenstein, U. Bozkaya, A. Yu. Sokolov,
    R. Di Remigio, R. M. Richard, J. F. Gonthier, A. M. James,
    H. R. McAlexander, A. Kumar, M. Saitow, X. Wang, B. P. Pritchard,
    P. Verma, H. F. Schaefer III, K. Patkowski, R. A. King, E. F. Valeev,
    F. A. Evangelista, J. M. Turney, T. D. Crawford, and C. D. Sherrill,
    J. Chem. Theory Comput. 13(7) pp 3185--3197 (2017).
    (doi: 10.1021/acs.jctc.7b00174)


                         Additional Contributions by
    P. Kraus, H. Kruse, M. H. Lechner, M. C. Schieber, R. A. Shaw,
    A. Alenaizan, R. Galvelis, Z. L. Glick, S. Lehtola, and J. P. Misiewicz

    -----------------------------------------------------------------------


    Psi4 started on: Monday, 09 September 2019 10:05PM

    Process ID: 64297
    Host:       node54.bme.utexas.edu
    PSIDATADIR: /home/xy3866/psi4conda/share/psi4
    Memory:     500.0 MiB
    Threads:    4
    
  ==> Input File <==

--------------------------------------------------------------------------
#psi4
#
memory 32 gb

molecule  {
0 1
  C        2.1022740    -0.1999910     0.0000010
  H        3.1931760    -0.2048250     0.0000000
  N        1.3929100    -1.2773340     0.0000000
  H        2.0119970    -2.0793170    -0.0000010
  N        1.5658380     1.0343930     0.0000000
  H        0.5512430     1.1716950     0.0000000
  H        2.1722770     1.8295020    -0.0000010
--
0 1
  C       -1.9543366     0.1878439     0.0000000
  H       -3.0452386     0.1926779     0.0000000
  N       -1.2449726     1.2651869     0.0000000
  H       -1.8640596     2.0671700     0.0000000
  N       -1.4179006    -1.0465400     0.0000000
  H       -0.4033056    -1.1838420     0.0000000
  H       -2.0243396    -1.8416491     0.0000000
units angstrom
no_reorient  #important for SAPT in psi4, default
symmetry c1  #important for SAPT in psi4, default
}

set {
basis aug-cc-pVTZ
scf_type DF
freeze_core True
}
energy('sapt2+')
--------------------------------------------------------------------------

  Memory set to  29.802 GiB by Python driver.

  //>>>>>>>>>>>>>>>>>>>>>>>>>>>>>>>>>>>//
  //              Dimer HF             //
  //<<<<<<<<<<<<<<<<<<<<<<<<<<<<<<<<<<<//


*** tstart() called on node54.bme.utexas.edu
*** at Mon Sep  9 22:05:42 2019

   => Loading Basis Set <=

    Name: AUG-CC-PVTZ
    Role: ORBITAL
    Keyword: BASIS
    atoms 1, 8                    entry C          line   235 file /home/xy3866/psi4conda/share/psi4/basis/aug-cc-pvtz.gbs 
    atoms 2, 4, 6-7, 9, 11, 13-14 entry H          line    36 file /home/xy3866/psi4conda/share/psi4/basis/aug-cc-pvtz.gbs 
    atoms 3, 5, 10, 12            entry N          line   281 file /home/xy3866/psi4conda/share/psi4/basis/aug-cc-pvtz.gbs 


         ---------------------------------------------------------
                                   SCF
               by Justin Turney, Rob Parrish, Andy Simmonett
                          and Daniel G. A. Smith
                              RHF Reference
                        4 Threads,  30517 MiB Core
         ---------------------------------------------------------

  ==> Geometry <==

    Molecular point group: c1
    Full point group: C1

    Geometry (in Angstrom), charge = 0, multiplicity = 1:

       Center              X                  Y                   Z               Mass       
    ------------   -----------------  -----------------  -----------------  -----------------
         C            2.028305300000    -0.193917468188     0.000000886638    12.000000000000
         H            3.119207300000    -0.198751468188    -0.000000113362     1.007825032230
         N            1.318941300000    -1.271260468188    -0.000000113362    14.003074004430
         H            1.938028300000    -2.073243468188    -0.000001113362     1.007825032230
         N            1.491869300000     1.040466531812    -0.000000113362    14.003074004430
         H            0.477274300000     1.177768531812    -0.000000113362     1.007825032230
         H            2.098308300000     1.835575531812    -0.000001113362     1.007825032230
         C           -2.028305300000     0.193917431812    -0.000000113362    12.000000000000
         H           -3.119207300000     0.198751431812    -0.000000113362     1.007825032230
         N           -1.318941300000     1.271260431812    -0.000000113362    14.003074004430
         H           -1.938028300000     2.073243531812    -0.000000113362     1.007825032230
         N           -1.491869300000    -1.040466468188    -0.000000113362    14.003074004430
         H           -0.477274300000    -1.177768468188    -0.000000113362     1.007825032230
         H           -2.098308300000    -1.835575568188    -0.000000113362     1.007825032230

  Running in c1 symmetry.

  Rotational constants: A =      0.18002  B =      0.06812  C =      0.04942 [cm^-1]
  Rotational constants: A =   5397.00677  B =   2042.12705  C =   1481.53989 [MHz]
  Nuclear repulsion =  231.756924579914511

  Charge       = 0
  Multiplicity = 1
  Electrons    = 48
  Nalpha       = 24
  Nbeta        = 24

  ==> Algorithm <==

  SCF Algorithm Type is DF.
  DIIS enabled.
  MOM disabled.
  Fractional occupation disabled.
  Guess Type is SAD.
  Energy threshold   = 1.00e-08
  Density threshold  = 1.00e-08
  Integral threshold = 0.00e+00

  ==> Primary Basis <==

  Basis Set: AUG-CC-PVTZ
    Blend: AUG-CC-PVTZ
    Number of shells: 156
    Number of basis function: 460
    Number of Cartesian functions: 530
    Spherical Harmonics?: true
    Max angular momentum: 3

   => Loading Basis Set <=

    Name: (AUG-CC-PVTZ AUX)
    Role: JKFIT
    Keyword: DF_BASIS_SCF
    atoms 1, 8                    entry C          line   162 file /home/xy3866/psi4conda/share/psi4/basis/aug-cc-pvtz-jkfit.gbs 
    atoms 2, 4, 6-7, 9, 11, 13-14 entry H          line    70 file /home/xy3866/psi4conda/share/psi4/basis/aug-cc-pvtz-jkfit.gbs 
    atoms 3, 5, 10, 12            entry N          line   224 file /home/xy3866/psi4conda/share/psi4/basis/aug-cc-pvtz-jkfit.gbs 

  ==> Pre-Iterations <==

   -------------------------------------------------------
    Irrep   Nso     Nmo     Nalpha   Nbeta   Ndocc  Nsocc
   -------------------------------------------------------
     A        460     460       0       0       0       0
   -------------------------------------------------------
    Total     460     460      24      24      24       0
   -------------------------------------------------------

  ==> Integral Setup <==

  ==> DiskDFJK: Density-Fitted J/K Matrices <==

    J tasked:                  Yes
    K tasked:                  Yes
    wK tasked:                  No
    OpenMP threads:              4
    Integrals threads:           4
    Memory [MiB]:            22888
    Algorithm:                Core
    Integral Cache:           SAVE
    Schwarz Cutoff:          1E-12
    Fitting Condition:       1E-10

   => Auxiliary Basis Set <=

  Basis Set: (AUG-CC-PVTZ AUX)
    Blend: AUG-CC-PVTZ-JKFIT
    Number of shells: 292
    Number of basis function: 992
    Number of Cartesian functions: 1226
    Spherical Harmonics?: true
    Max angular momentum: 4

  Minimum eigenvalue in the overlap matrix is 1.7643067255E-05.
  Using Symmetric Orthogonalization.

  SCF Guess: Superposition of Atomic Densities via on-the-fly atomic UHF.

  ==> Iterations <==

                           Total Energy        Delta E     RMS |[F,P]|

   @DF-RHF iter SAD:  -297.10077111400221   -2.97101e+02   0.00000e+00 
   @DF-RHF iter   1:  -298.03761991809222   -9.36849e-01   1.62254e-03 DIIS
   @DF-RHF iter   2:  -298.22691924035456   -1.89299e-01   9.09988e-04 DIIS
   @DF-RHF iter   3:  -298.29685252338578   -6.99333e-02   1.28223e-04 DIIS
   @DF-RHF iter   4:  -298.29934203471583   -2.48951e-03   5.54681e-05 DIIS
   @DF-RHF iter   5:  -298.29969429407129   -3.52259e-04   1.17687e-05 DIIS
   @DF-RHF iter   6:  -298.29973818680662   -4.38927e-05   5.50193e-06 DIIS
   @DF-RHF iter   7:  -298.29974657182100   -8.38501e-06   2.05497e-06 DIIS
   @DF-RHF iter   8:  -298.29974830682283   -1.73500e-06   7.67317e-07 DIIS
   @DF-RHF iter   9:  -298.29974850984735   -2.03025e-07   2.50375e-07 DIIS
   @DF-RHF iter  10:  -298.29974853228794   -2.24406e-08   6.68987e-08 DIIS
   @DF-RHF iter  11:  -298.29974853391803   -1.63010e-09   1.32499e-08 DIIS
   @DF-RHF iter  12:  -298.29974853396800   -4.99654e-11   2.02002e-09 DIIS
  Energy and wave function converged.


  ==> Post-Iterations <==

    Orbital Energies [Eh]
    ---------------------

    Doubly Occupied:                                                      

       1A    -15.547462     2A    -15.547461     3A    -15.513988  
       4A    -15.513988     5A    -11.310272     6A    -11.310272  
       7A     -1.249025     8A     -1.239270     9A     -1.134905  
      10A     -1.122714    11A     -0.827762    12A     -0.804685  
      13A     -0.737674    14A     -0.723147    15A     -0.655341  
      16A     -0.613560    17A     -0.607943    18A     -0.598022  
      19A     -0.519125    20A     -0.509114    21A     -0.444388  
      22A     -0.403395    23A     -0.357328    24A     -0.342841  

    Virtual:                                                              

      25A      0.028610    26A      0.032517    27A      0.037743  
      28A      0.049839    29A      0.050810    30A      0.070656  
      31A      0.078355    32A      0.082850    33A      0.087114  
      34A      0.090035    35A      0.121201    36A      0.131351  
      37A      0.131447    38A      0.133133    39A      0.140074  
      40A      0.140933    41A      0.140933    42A      0.147155  
      43A      0.159653    44A      0.161854    45A      0.169085  
      46A      0.174612    47A      0.188464    48A      0.196931  
      49A      0.212170    50A      0.214002    51A      0.221924  
      52A      0.226983    53A      0.230667    54A      0.238781  
      55A      0.251898    56A      0.265707    57A      0.285675  
      58A      0.299617    59A      0.300057    60A      0.301280  
      61A      0.309803    62A      0.315472    63A      0.315957  
      64A      0.324924    65A      0.331371    66A      0.336603  
      67A      0.351262    68A      0.360584    69A      0.368600  
      70A      0.368734    71A      0.371210    72A      0.377818  
      73A      0.381250    74A      0.389069    75A      0.395220  
      76A      0.396389    77A      0.405856    78A      0.408046  
      79A      0.432824    80A      0.441214    81A      0.442145  
      82A      0.444119    83A      0.451437    84A      0.453086  
      85A      0.456342    86A      0.470567    87A      0.471510  
      88A      0.489482    89A      0.508976    90A      0.515467  
      91A      0.528926    92A      0.532822    93A      0.535969  
      94A      0.548790    95A      0.550222    96A      0.563674  
      97A      0.574119    98A      0.575656    99A      0.587549  
     100A      0.606817   101A      0.623815   102A      0.631629  
     103A      0.646291   104A      0.651645   105A      0.653487  
     106A      0.661153   107A      0.664832   108A      0.674470  
     109A      0.680076   110A      0.687968   111A      0.700800  
     112A      0.720524   113A      0.724964   114A      0.731370  
     115A      0.736865   116A      0.753271   117A      0.773159  
     118A      0.773771   119A      0.779907   120A      0.782934  
     121A      0.785456   122A      0.795704   123A      0.799291  
     124A      0.802080   125A      0.805261   126A      0.821182  
     127A      0.863373   128A      0.867865   129A      0.891369  
     130A      0.897098   131A      0.900133   132A      0.906539  
     133A      0.926311   134A      0.929655   135A      0.936337  
     136A      0.942092   137A      0.957879   138A      0.959607  
     139A      0.959623   140A      0.962316   141A      0.974359  
     142A      0.990045   143A      0.996806   144A      0.998090  
     145A      1.026074   146A      1.026764   147A      1.029845  
     148A      1.031214   149A      1.044584   150A      1.047283  
     151A      1.064690   152A      1.071336   153A      1.092270  
     154A      1.095420   155A      1.101570   156A      1.118740  
     157A      1.121364   158A      1.132578   159A      1.147269  
     160A      1.156891   161A      1.163181   162A      1.174205  
     163A      1.185738   164A      1.197642   165A      1.197783  
     166A      1.224660   167A      1.226704   168A      1.233013  
     169A      1.238006   170A      1.258840   171A      1.265994  
     172A      1.273474   173A      1.279677   174A      1.284038  
     175A      1.284665   176A      1.295074   177A      1.304639  
     178A      1.336492   179A      1.345375   180A      1.353985  
     181A      1.363487   182A      1.372386   183A      1.384881  
     184A      1.392718   185A      1.418906   186A      1.419890  
     187A      1.433965   188A      1.439135   189A      1.461363  
     190A      1.465421   191A      1.467771   192A      1.468583  
     193A      1.476877   194A      1.486496   195A      1.492947  
     196A      1.498735   197A      1.508234   198A      1.512075  
     199A      1.512408   200A      1.530801   201A      1.532411  
     202A      1.547298   203A      1.561129   204A      1.587316  
     205A      1.589901   206A      1.594186   207A      1.595255  
     208A      1.625757   209A      1.641988   210A      1.654731  
     211A      1.666713   212A      1.688124   213A      1.710940  
     214A      1.715861   215A      1.732072   216A      1.743067  
     217A      1.761793   218A      1.813438   219A      1.823350  
     220A      1.830141   221A      1.838270   222A      1.858739  
     223A      1.863886   224A      1.900742   225A      1.930341  
     226A      1.936358   227A      1.989621   228A      1.994847  
     229A      1.998507   230A      2.000101   231A      2.008619  
     232A      2.022917   233A      2.033413   234A      2.084754  
     235A      2.092847   236A      2.110121   237A      2.119254  
     238A      2.147437   239A      2.151977   240A      2.172940  
     241A      2.174025   242A      2.176304   243A      2.188462  
     244A      2.211451   245A      2.227667   246A      2.246611  
     247A      2.260860   248A      2.263568   249A      2.284861  
     250A      2.297830   251A      2.312474   252A      2.322485  
     253A      2.325092   254A      2.359798   255A      2.379517  
     256A      2.379926   257A      2.423392   258A      2.430022  
     259A      2.471068   260A      2.476186   261A      2.514238  
     262A      2.523034   263A      2.532842   264A      2.547232  
     265A      2.563591   266A      2.567758   267A      2.572220  
     268A      2.578166   269A      2.597119   270A      2.607889  
     271A      2.651615   272A      2.660874   273A      2.661899  
     274A      2.705097   275A      2.713306   276A      2.714340  
     277A      2.735974   278A      2.746001   279A      2.750714  
     280A      2.769163   281A      2.839909   282A      2.872605  
     283A      2.879444   284A      2.975738   285A      3.032165  
     286A      3.045507   287A      3.054891   288A      3.120080  
     289A      3.130599   290A      3.141571   291A      3.172891  
     292A      3.281008   293A      3.293740   294A      3.308088  
     295A      3.412453   296A      3.434985   297A      3.448013  
     298A      3.457265   299A      3.513636   300A      3.518012  
     301A      3.609111   302A      3.634735   303A      3.642189  
     304A      3.705002   305A      3.708970   306A      3.720540  
     307A      3.794631   308A      3.801997   309A      3.815720  
     310A      3.830706   311A      3.875568   312A      3.882619  
     313A      3.893167   314A      3.894324   315A      3.942017  
     316A      3.954038   317A      3.986861   318A      4.044473  
     319A      4.084873   320A      4.091840   321A      4.095275  
     322A      4.120885   323A      4.143460   324A      4.146415  
     325A      4.147524   326A      4.179473   327A      4.179916  
     328A      4.182192   329A      4.223454   330A      4.240275  
     331A      4.245631   332A      4.254631   333A      4.273810  
     334A      4.282082   335A      4.321798   336A      4.323040  
     337A      4.345631   338A      4.347628   339A      4.366868  
     340A      4.367876   341A      4.391479   342A      4.392301  
     343A      4.433831   344A      4.445114   345A      4.478250  
     346A      4.481793   347A      4.532500   348A      4.556603  
     349A      4.596136   350A      4.607789   351A      4.621062  
     352A      4.656853   353A      4.660490   354A      4.666999  
     355A      4.667347   356A      4.703737   357A      4.726950  
     358A      4.738063   359A      4.782632   360A      4.799095  
     361A      4.804764   362A      4.829655   363A      4.836357  
     364A      4.849601   365A      4.886609   366A      4.901190  
     367A      4.906798   368A      4.910963   369A      4.925816  
     370A      4.929102   371A      4.951999   372A      4.959531  
     373A      4.985066   374A      5.034779   375A      5.055365  
     376A      5.059715   377A      5.076198   378A      5.092725  
     379A      5.149591   380A      5.153077   381A      5.170942  
     382A      5.224844   383A      5.225718   384A      5.259950  
     385A      5.265442   386A      5.272143   387A      5.300965  
     388A      5.335084   389A      5.378143   390A      5.415287  
     391A      5.446973   392A      5.486988   393A      5.494673  
     394A      5.512044   395A      5.520683   396A      5.528731  
     397A      5.547693   398A      5.571826   399A      5.572317  
     400A      5.584858   401A      5.593812   402A      5.641366  
     403A      5.656236   404A      5.675405   405A      5.692615  
     406A      5.714231   407A      5.716512   408A      5.747968  
     409A      5.758366   410A      5.770207   411A      5.806830  
     412A      5.813112   413A      5.841043   414A      5.883767  
     415A      5.895850   416A      5.965341   417A      5.968236  
     418A      5.975547   419A      5.999345   420A      6.015652  
     421A      6.104951   422A      6.120079   423A      6.126585  
     424A      6.139757   425A      6.187637   426A      6.215112  
     427A      6.218011   428A      6.224479   429A      6.251075  
     430A      6.258326   431A      6.314605   432A      6.353477  
     433A      6.394289   434A      6.426266   435A      6.555282  
     436A      6.581522   437A      6.631476   438A      6.696180  
     439A      6.700443   440A      6.732713   441A      6.755213  
     442A      6.848802   443A      6.947463   444A      7.042149  
     445A      7.123250   446A      7.128337   447A      7.464330  
     448A      7.578796   449A      7.603210   450A      7.608886  
     451A      7.739387   452A      7.782234   453A      7.927466  
     454A      7.932104   455A     17.187720   456A     17.240975  
     457A     17.555060   458A     17.884779   459A     19.102934  
     460A     19.131160  

    Final Occupation by Irrep:
              A 
    DOCC [    24 ]

  @DF-RHF Final Energy:  -298.29974853396800

   => Energetics <=

    Nuclear Repulsion Energy =            231.7569245799145108
    One-Electron Energy =                -864.8459772535436514
    Two-Electron Energy =                 334.7893041396611125
    Total Energy =                       -298.2997485339679997

Computation Completed


Properties will be evaluated at   0.000000,   0.000000,   0.000000 [a0]

Properties computed using the SCF density matrix

  Nuclear Dipole Moment: [e a0]
     X:     0.0000      Y:     0.0000      Z:    -0.0000

  Electronic Dipole Moment: [e a0]
     X:     0.0000      Y:    -0.0000      Z:     0.0000

  Dipole Moment: [e a0]
     X:     0.0000      Y:    -0.0000      Z:    -0.0000     Total:     0.0000

  Dipole Moment: [D]
     X:     0.0000      Y:    -0.0000      Z:    -0.0000     Total:     0.0000


*** tstop() called on node54.bme.utexas.edu at Mon Sep  9 22:06:05 2019
Module time:
	user time   =      82.80 seconds =       1.38 minutes
	system time =       1.58 seconds =       0.03 minutes
	total time  =         23 seconds =       0.38 minutes
Total time:
	user time   =      82.80 seconds =       1.38 minutes
	system time =       1.58 seconds =       0.03 minutes
	total time  =         23 seconds =       0.38 minutes

  //>>>>>>>>>>>>>>>>>>>>>>>>>>>>>>>>>>>//
  //            Monomer A HF           //
  //<<<<<<<<<<<<<<<<<<<<<<<<<<<<<<<<<<<//


*** tstart() called on node54.bme.utexas.edu
*** at Mon Sep  9 22:06:05 2019

   => Loading Basis Set <=

    Name: AUG-CC-PVTZ
    Role: ORBITAL
    Keyword: BASIS
    atoms 1, 8                    entry C          line   235 file /home/xy3866/psi4conda/share/psi4/basis/aug-cc-pvtz.gbs 
    atoms 2, 4, 6-7, 9, 11, 13-14 entry H          line    36 file /home/xy3866/psi4conda/share/psi4/basis/aug-cc-pvtz.gbs 
    atoms 3, 5, 10, 12            entry N          line   281 file /home/xy3866/psi4conda/share/psi4/basis/aug-cc-pvtz.gbs 


         ---------------------------------------------------------
                                   SCF
               by Justin Turney, Rob Parrish, Andy Simmonett
                          and Daniel G. A. Smith
                              RHF Reference
                        4 Threads,  30517 MiB Core
         ---------------------------------------------------------

  ==> Geometry <==

    Molecular point group: c1
    Full point group: C1

    Geometry (in Angstrom), charge = 0, multiplicity = 1:

       Center              X                  Y                   Z               Mass       
    ------------   -----------------  -----------------  -----------------  -----------------
         C            2.028305300000    -0.193917468188     0.000000886638    12.000000000000
         H            3.119207300000    -0.198751468188    -0.000000113362     1.007825032230
         N            1.318941300000    -1.271260468188    -0.000000113362    14.003074004430
         H            1.938028300000    -2.073243468188    -0.000001113362     1.007825032230
         N            1.491869300000     1.040466531812    -0.000000113362    14.003074004430
         H            0.477274300000     1.177768531812    -0.000000113362     1.007825032230
         H            2.098308300000     1.835575531812    -0.000001113362     1.007825032230
      Gh(C)          -2.028305300000     0.193917431812    -0.000000113362    12.000000000000
      Gh(H)          -3.119207300000     0.198751431812    -0.000000113362     1.007825032230
      Gh(N)          -1.318941300000     1.271260431812    -0.000000113362    14.003074004430
      Gh(H)          -1.938028300000     2.073243531812    -0.000000113362     1.007825032230
      Gh(N)          -1.491869300000    -1.040466468188    -0.000000113362    14.003074004430
      Gh(H)          -0.477274300000    -1.177768468188    -0.000000113362     1.007825032230
      Gh(H)          -2.098308300000    -1.835575568188    -0.000000113362     1.007825032230

  Running in c1 symmetry.

  Rotational constants: A =      0.18002  B =      0.06812  C =      0.04942 [cm^-1]
  Rotational constants: A =   5397.00677  B =   2042.12705  C =   1481.53989 [MHz]
  Nuclear repulsion =   72.180708619553755

  Charge       = 0
  Multiplicity = 1
  Electrons    = 24
  Nalpha       = 12
  Nbeta        = 12

  ==> Algorithm <==

  SCF Algorithm Type is DF.
  DIIS enabled.
  MOM disabled.
  Fractional occupation disabled.
  Guess Type is SAD.
  Energy threshold   = 1.00e-08
  Density threshold  = 1.00e-08
  Integral threshold = 0.00e+00

  ==> Primary Basis <==

  Basis Set: AUG-CC-PVTZ
    Blend: AUG-CC-PVTZ
    Number of shells: 156
    Number of basis function: 460
    Number of Cartesian functions: 530
    Spherical Harmonics?: true
    Max angular momentum: 3

   => Loading Basis Set <=

    Name: (AUG-CC-PVTZ AUX)
    Role: JKFIT
    Keyword: DF_BASIS_SCF
    atoms 1, 8                    entry C          line   162 file /home/xy3866/psi4conda/share/psi4/basis/aug-cc-pvtz-jkfit.gbs 
    atoms 2, 4, 6-7, 9, 11, 13-14 entry H          line    70 file /home/xy3866/psi4conda/share/psi4/basis/aug-cc-pvtz-jkfit.gbs 
    atoms 3, 5, 10, 12            entry N          line   224 file /home/xy3866/psi4conda/share/psi4/basis/aug-cc-pvtz-jkfit.gbs 

  ==> Pre-Iterations <==

   -------------------------------------------------------
    Irrep   Nso     Nmo     Nalpha   Nbeta   Ndocc  Nsocc
   -------------------------------------------------------
     A        460     460       0       0       0       0
   -------------------------------------------------------
    Total     460     460      12      12      12       0
   -------------------------------------------------------

  ==> Integral Setup <==

  ==> DiskDFJK: Density-Fitted J/K Matrices <==

    J tasked:                  Yes
    K tasked:                  Yes
    wK tasked:                  No
    OpenMP threads:              4
    Integrals threads:           4
    Memory [MiB]:            22888
    Algorithm:                Core
    Integral Cache:           LOAD
    Schwarz Cutoff:          1E-12
    Fitting Condition:       1E-10

   => Auxiliary Basis Set <=

  Basis Set: (AUG-CC-PVTZ AUX)
    Blend: AUG-CC-PVTZ-JKFIT
    Number of shells: 292
    Number of basis function: 992
    Number of Cartesian functions: 1226
    Spherical Harmonics?: true
    Max angular momentum: 4

  Minimum eigenvalue in the overlap matrix is 1.7643067255E-05.
  Using Symmetric Orthogonalization.

  SCF Guess: Superposition of Atomic Densities via on-the-fly atomic UHF.

  ==> Iterations <==

                           Total Energy        Delta E     RMS |[F,P]|

   @DF-RHF iter SAD:  -148.38772542177352   -1.48388e+02   0.00000e+00 
   @DF-RHF iter   1:  -148.99747202873527   -6.09747e-01   1.19324e-03 DIIS
   @DF-RHF iter   2:  -149.09947619907911   -1.02004e-01   7.04028e-04 DIIS
   @DF-RHF iter   3:  -149.14139870662129   -4.19225e-02   9.82744e-05 DIIS
   @DF-RHF iter   4:  -149.14281385460365   -1.41515e-03   4.86468e-05 DIIS
   @DF-RHF iter   5:  -149.14309143775105   -2.77583e-04   8.88155e-06 DIIS
   @DF-RHF iter   6:  -149.14312009382098   -2.86561e-05   4.19432e-06 DIIS
   @DF-RHF iter   7:  -149.14312480051720   -4.70670e-06   1.68834e-06 DIIS
   @DF-RHF iter   8:  -149.14312574223504   -9.41718e-07   4.98766e-07 DIIS
   @DF-RHF iter   9:  -149.14312582811039   -8.58753e-08   1.52327e-07 DIIS
   @DF-RHF iter  10:  -149.14312583568599   -7.57561e-09   3.78422e-08 DIIS
   @DF-RHF iter  11:  -149.14312583616041   -4.74415e-10   7.22644e-09 DIIS
  Energy and wave function converged.


  ==> Post-Iterations <==

    Orbital Energies [Eh]
    ---------------------

    Doubly Occupied:                                                      

       1A    -15.581651     2A    -15.519545     3A    -11.314764  
       4A     -1.258999     5A     -1.137046     6A     -0.829937  
       7A     -0.745809     8A     -0.639650     9A     -0.615820  
      10A     -0.530065    11A     -0.419651    12A     -0.359456  

    Virtual:                                                              

      13A      0.021401    14A      0.030584    15A      0.036955  
      16A      0.050165    17A      0.051703    18A      0.070303  
      19A      0.074815    20A      0.074881    21A      0.086380  
      22A      0.087966    23A      0.097337    24A      0.113147  
      25A      0.126410    26A      0.128103    27A      0.130924  
      28A      0.137142    29A      0.139716    30A      0.143062  
      31A      0.150111    32A      0.161417    33A      0.165029  
      34A      0.167033    35A      0.187787    36A      0.196096  
      37A      0.202416    38A      0.212213    39A      0.219037  
      40A      0.223354    41A      0.227815    42A      0.239929  
      43A      0.249203    44A      0.253311    45A      0.276413  
      46A      0.290088    47A      0.297491    48A      0.298757  
      49A      0.306606    50A      0.308639    51A      0.317096  
      52A      0.320801    53A      0.331693    54A      0.343718  
      55A      0.350004    56A      0.354045    57A      0.358939  
      58A      0.368016    59A      0.370851    60A      0.372578  
      61A      0.380228    62A      0.380810    63A      0.391283  
      64A      0.396700    65A      0.399746    66A      0.400841  
      67A      0.417274    68A      0.419176    69A      0.429580  
      70A      0.435586    71A      0.444668    72A      0.456086  
      73A      0.458061    74A      0.464163    75A      0.471971  
      76A      0.482076    77A      0.503342    78A      0.508222  
      79A      0.514151    80A      0.525053    81A      0.531896  
      82A      0.536605    83A      0.553027    84A      0.565185  
      85A      0.573414    86A      0.591624    87A      0.595303  
      88A      0.614657    89A      0.631493    90A      0.638157  
      91A      0.642897    92A      0.653164    93A      0.657827  
      94A      0.663498    95A      0.678866    96A      0.695579  
      97A      0.702198    98A      0.712953    99A      0.714016  
     100A      0.730152   101A      0.736116   102A      0.754702  
     103A      0.765613   104A      0.767599   105A      0.777521  
     106A      0.787098   107A      0.791676   108A      0.801422  
     109A      0.807992   110A      0.819109   111A      0.821802  
     112A      0.838291   113A      0.838305   114A      0.844434  
     115A      0.850326   116A      0.872514   117A      0.882007  
     118A      0.897715   119A      0.901025   120A      0.910818  
     121A      0.915702   122A      0.933800   123A      0.934014  
     124A      0.941050   125A      0.948178   126A      0.953928  
     127A      0.969197   128A      0.989859   129A      0.991371  
     130A      0.993855   131A      1.015062   132A      1.017118  
     133A      1.028363   134A      1.039675   135A      1.042280  
     136A      1.045972   137A      1.057440   138A      1.084276  
     139A      1.086069   140A      1.093562   141A      1.095770  
     142A      1.097480   143A      1.104980   144A      1.128094  
     145A      1.129288   146A      1.132504   147A      1.139876  
     148A      1.151245   149A      1.160715   150A      1.190142  
     151A      1.191576   152A      1.208382   153A      1.218853  
     154A      1.229984   155A      1.239718   156A      1.247199  
     157A      1.265561   158A      1.280864   159A      1.282438  
     160A      1.288655   161A      1.297509   162A      1.315625  
     163A      1.331398   164A      1.335502   165A      1.356512  
     166A      1.361086   167A      1.375351   168A      1.383356  
     169A      1.386567   170A      1.412515   171A      1.418453  
     172A      1.430388   173A      1.440269   174A      1.452642  
     175A      1.473117   176A      1.476926   177A      1.482729  
     178A      1.501971   179A      1.503283   180A      1.507382  
     181A      1.508729   182A      1.524905   183A      1.533169  
     184A      1.533690   185A      1.573920   186A      1.585009  
     187A      1.594846   188A      1.604277   189A      1.614908  
     190A      1.641467   191A      1.649634   192A      1.651438  
     193A      1.661013   194A      1.674169   195A      1.691283  
     196A      1.701338   197A      1.702292   198A      1.710811  
     199A      1.725710   200A      1.736197   201A      1.746805  
     202A      1.756925   203A      1.771240   204A      1.778150  
     205A      1.782126   206A      1.796322   207A      1.798837  
     208A      1.828690   209A      1.844605   210A      1.847601  
     211A      1.874844   212A      1.895079   213A      1.905087  
     214A      1.915931   215A      1.940822   216A      1.974853  
     217A      2.003129   218A      2.028188   219A      2.035729  
     220A      2.043921   221A      2.063024   222A      2.074272  
     223A      2.086035   224A      2.097184   225A      2.104151  
     226A      2.147037   227A      2.163692   228A      2.174240  
     229A      2.185832   230A      2.203790   231A      2.213803  
     232A      2.225712   233A      2.252998   234A      2.294600  
     235A      2.302819   236A      2.342547   237A      2.351893  
     238A      2.354572   239A      2.364436   240A      2.395332  
     241A      2.399400   242A      2.406787   243A      2.414070  
     244A      2.455208   245A      2.464355   246A      2.469733  
     247A      2.492434   248A      2.511222   249A      2.519898  
     250A      2.536260   251A      2.560518   252A      2.570032  
     253A      2.575579   254A      2.608228   255A      2.616458  
     256A      2.679201   257A      2.688607   258A      2.701776  
     259A      2.711904   260A      2.715956   261A      2.720654  
     262A      2.741734   263A      2.752969   264A      2.787945  
     265A      2.812810   266A      2.827951   267A      2.852593  
     268A      2.872372   269A      2.906659   270A      2.954808  
     271A      2.999473   272A      3.008958   273A      3.029830  
     274A      3.075404   275A      3.083999   276A      3.109128  
     277A      3.127682   278A      3.163103   279A      3.173222  
     280A      3.182563   281A      3.249365   282A      3.270860  
     283A      3.315524   284A      3.361662   285A      3.437718  
     286A      3.445168   287A      3.470754   288A      3.511121  
     289A      3.543977   290A      3.587267   291A      3.622051  
     292A      3.659402   293A      3.697540   294A      3.754769  
     295A      3.820092   296A      3.823250   297A      3.835690  
     298A      3.876387   299A      3.878950   300A      3.905052  
     301A      3.991444   302A      4.034558   303A      4.066912  
     304A      4.087837   305A      4.096699   306A      4.137238  
     307A      4.145851   308A      4.158498   309A      4.174131  
     310A      4.178282   311A      4.218553   312A      4.252771  
     313A      4.267572   314A      4.316815   315A      4.328589  
     316A      4.344470   317A      4.387143   318A      4.394621  
     319A      4.442985   320A      4.443015   321A      4.452028  
     322A      4.467003   323A      4.501254   324A      4.539814  
     325A      4.567475   326A      4.580034   327A      4.602410  
     328A      4.620982   329A      4.642058   330A      4.675016  
     331A      4.692219   332A      4.698752   333A      4.739122  
     334A      4.770017   335A      4.778378   336A      4.789612  
     337A      4.790724   338A      4.824414   339A      4.853660  
     340A      4.873161   341A      4.886745   342A      4.890316  
     343A      4.904440   344A      4.906782   345A      4.921773  
     346A      4.932270   347A      4.955183   348A      4.976508  
     349A      4.988837   350A      5.007459   351A      5.023588  
     352A      5.024181   353A      5.056462   354A      5.067962  
     355A      5.100244   356A      5.132395   357A      5.136727  
     358A      5.176854   359A      5.211991   360A      5.234093  
     361A      5.244231   362A      5.274237   363A      5.305504  
     364A      5.315100   365A      5.316560   366A      5.331835  
     367A      5.356393   368A      5.373287   369A      5.427356  
     370A      5.439714   371A      5.458880   372A      5.479138  
     373A      5.489022   374A      5.526376   375A      5.533679  
     376A      5.554290   377A      5.564910   378A      5.573794  
     379A      5.626018   380A      5.641697   381A      5.648546  
     382A      5.744373   383A      5.750849   384A      5.777352  
     385A      5.792707   386A      5.797374   387A      5.843161  
     388A      5.857506   389A      5.904696   390A      5.936813  
     391A      5.980229   392A      5.985154   393A      6.031545  
     394A      6.071381   395A      6.087674   396A      6.122941  
     397A      6.125841   398A      6.147426   399A      6.200869  
     400A      6.228743   401A      6.240183   402A      6.274826  
     403A      6.300581   404A      6.316912   405A      6.324013  
     406A      6.413245   407A      6.459021   408A      6.479651  
     409A      6.507546   410A      6.571555   411A      6.613332  
     412A      6.613461   413A      6.625348   414A      6.662461  
     415A      6.699010   416A      6.721674   417A      6.749286  
     418A      6.766937   419A      6.902088   420A      6.927566  
     421A      6.928524   422A      7.021270   423A      7.053428  
     424A      7.106154   425A      7.298519   426A      7.384168  
     427A      7.430137   428A      7.506012   429A      7.579400  
     430A      7.594178   431A      7.655242   432A      7.677764  
     433A      7.688308   434A      7.755733   435A      7.779842  
     436A      7.801749   437A      7.851596   438A      8.028276  
     439A      8.290852   440A      8.382338   441A      8.510579  
     442A      8.611855   443A      9.042832   444A      9.345078  
     445A      9.459159   446A      9.467159   447A      9.584830  
     448A     10.193535   449A     10.802384   450A     11.274257  
     451A     11.665877   452A     11.801875   453A     12.145390  
     454A     12.917270   455A     17.256165   456A     17.689536  
     457A     19.085230   458A     52.052864   459A     59.490553  
     460A     62.725820  

    Final Occupation by Irrep:
              A 
    DOCC [    12 ]

  @DF-RHF Final Energy:  -149.14312583616041

   => Energetics <=

    Nuclear Repulsion Energy =             72.1807086195537551
    One-Electron Energy =                -344.7428816052321281
    Two-Electron Energy =                 123.4190471495179793
    Total Energy =                       -149.1431258361604080

Computation Completed


Properties will be evaluated at   0.000000,   0.000000,   0.000000 [a0]

Properties computed using the SCF density matrix

  Nuclear Dipole Moment: [e a0]
     X:    74.6032      Y:    -3.8507      Z:     0.0000

  Electronic Dipole Moment: [e a0]
     X:   -73.7809      Y:     4.8430      Z:    -0.0000

  Dipole Moment: [e a0]
     X:     0.8223      Y:     0.9923      Z:    -0.0000     Total:     1.2887

  Dipole Moment: [D]
     X:     2.0901      Y:     2.5221      Z:    -0.0000     Total:     3.2755


*** tstop() called on node54.bme.utexas.edu at Mon Sep  9 22:06:18 2019
Module time:
	user time   =      47.92 seconds =       0.80 minutes
	system time =       0.89 seconds =       0.01 minutes
	total time  =         13 seconds =       0.22 minutes
Total time:
	user time   =     130.75 seconds =       2.18 minutes
	system time =       2.48 seconds =       0.04 minutes
	total time  =         36 seconds =       0.60 minutes

  //>>>>>>>>>>>>>>>>>>>>>>>>>>>>>>>>>>>//
  //            Monomer B HF           //
  //<<<<<<<<<<<<<<<<<<<<<<<<<<<<<<<<<<<//


*** tstart() called on node54.bme.utexas.edu
*** at Mon Sep  9 22:06:18 2019

   => Loading Basis Set <=

    Name: AUG-CC-PVTZ
    Role: ORBITAL
    Keyword: BASIS
    atoms 1, 8                    entry C          line   235 file /home/xy3866/psi4conda/share/psi4/basis/aug-cc-pvtz.gbs 
    atoms 2, 4, 6-7, 9, 11, 13-14 entry H          line    36 file /home/xy3866/psi4conda/share/psi4/basis/aug-cc-pvtz.gbs 
    atoms 3, 5, 10, 12            entry N          line   281 file /home/xy3866/psi4conda/share/psi4/basis/aug-cc-pvtz.gbs 


         ---------------------------------------------------------
                                   SCF
               by Justin Turney, Rob Parrish, Andy Simmonett
                          and Daniel G. A. Smith
                              RHF Reference
                        4 Threads,  30517 MiB Core
         ---------------------------------------------------------

  ==> Geometry <==

    Molecular point group: c1
    Full point group: C1

    Geometry (in Angstrom), charge = 0, multiplicity = 1:

       Center              X                  Y                   Z               Mass       
    ------------   -----------------  -----------------  -----------------  -----------------
      Gh(C)           2.028305300000    -0.193917468188     0.000000886638    12.000000000000
      Gh(H)           3.119207300000    -0.198751468188    -0.000000113362     1.007825032230
      Gh(N)           1.318941300000    -1.271260468188    -0.000000113362    14.003074004430
      Gh(H)           1.938028300000    -2.073243468188    -0.000001113362     1.007825032230
      Gh(N)           1.491869300000     1.040466531812    -0.000000113362    14.003074004430
      Gh(H)           0.477274300000     1.177768531812    -0.000000113362     1.007825032230
      Gh(H)           2.098308300000     1.835575531812    -0.000001113362     1.007825032230
         C           -2.028305300000     0.193917431812    -0.000000113362    12.000000000000
         H           -3.119207300000     0.198751431812    -0.000000113362     1.007825032230
         N           -1.318941300000     1.271260431812    -0.000000113362    14.003074004430
         H           -1.938028300000     2.073243531812    -0.000000113362     1.007825032230
         N           -1.491869300000    -1.040466468188    -0.000000113362    14.003074004430
         H           -0.477274300000    -1.177768468188    -0.000000113362     1.007825032230
         H           -2.098308300000    -1.835575568188    -0.000000113362     1.007825032230

  Running in c1 symmetry.

  Rotational constants: A =      0.18002  B =      0.06812  C =      0.04942 [cm^-1]
  Rotational constants: A =   5397.00677  B =   2042.12705  C =   1481.53989 [MHz]
  Nuclear repulsion =   72.180709694814880

  Charge       = 0
  Multiplicity = 1
  Electrons    = 24
  Nalpha       = 12
  Nbeta        = 12

  ==> Algorithm <==

  SCF Algorithm Type is DF.
  DIIS enabled.
  MOM disabled.
  Fractional occupation disabled.
  Guess Type is SAD.
  Energy threshold   = 1.00e-08
  Density threshold  = 1.00e-08
  Integral threshold = 0.00e+00

  ==> Primary Basis <==

  Basis Set: AUG-CC-PVTZ
    Blend: AUG-CC-PVTZ
    Number of shells: 156
    Number of basis function: 460
    Number of Cartesian functions: 530
    Spherical Harmonics?: true
    Max angular momentum: 3

   => Loading Basis Set <=

    Name: (AUG-CC-PVTZ AUX)
    Role: JKFIT
    Keyword: DF_BASIS_SCF
    atoms 1, 8                    entry C          line   162 file /home/xy3866/psi4conda/share/psi4/basis/aug-cc-pvtz-jkfit.gbs 
    atoms 2, 4, 6-7, 9, 11, 13-14 entry H          line    70 file /home/xy3866/psi4conda/share/psi4/basis/aug-cc-pvtz-jkfit.gbs 
    atoms 3, 5, 10, 12            entry N          line   224 file /home/xy3866/psi4conda/share/psi4/basis/aug-cc-pvtz-jkfit.gbs 

  ==> Pre-Iterations <==

   -------------------------------------------------------
    Irrep   Nso     Nmo     Nalpha   Nbeta   Ndocc  Nsocc
   -------------------------------------------------------
     A        460     460       0       0       0       0
   -------------------------------------------------------
    Total     460     460      12      12      12       0
   -------------------------------------------------------

  ==> Integral Setup <==

  ==> DiskDFJK: Density-Fitted J/K Matrices <==

    J tasked:                  Yes
    K tasked:                  Yes
    wK tasked:                  No
    OpenMP threads:              4
    Integrals threads:           4
    Memory [MiB]:            22888
    Algorithm:                Core
    Integral Cache:           LOAD
    Schwarz Cutoff:          1E-12
    Fitting Condition:       1E-10

   => Auxiliary Basis Set <=

  Basis Set: (AUG-CC-PVTZ AUX)
    Blend: AUG-CC-PVTZ-JKFIT
    Number of shells: 292
    Number of basis function: 992
    Number of Cartesian functions: 1226
    Spherical Harmonics?: true
    Max angular momentum: 4

  Minimum eigenvalue in the overlap matrix is 1.7643067255E-05.
  Using Symmetric Orthogonalization.

  SCF Guess: Superposition of Atomic Densities via on-the-fly atomic UHF.

  ==> Iterations <==

                           Total Energy        Delta E     RMS |[F,P]|

   @DF-RHF iter SAD:  -148.38772551289628   -1.48388e+02   0.00000e+00 
   @DF-RHF iter   1:  -148.99747201600135   -6.09747e-01   1.19324e-03 DIIS
   @DF-RHF iter   2:  -149.09947619028139   -1.02004e-01   7.04028e-04 DIIS
   @DF-RHF iter   3:  -149.14139870298735   -4.19225e-02   9.82744e-05 DIIS
   @DF-RHF iter   4:  -149.14281385095998   -1.41515e-03   4.86468e-05 DIIS
   @DF-RHF iter   5:  -149.14309143410878   -2.77583e-04   8.88155e-06 DIIS
   @DF-RHF iter   6:  -149.14312009017550   -2.86561e-05   4.19432e-06 DIIS
   @DF-RHF iter   7:  -149.14312479686927   -4.70669e-06   1.68834e-06 DIIS
   @DF-RHF iter   8:  -149.14312573858709   -9.41718e-07   4.98766e-07 DIIS
   @DF-RHF iter   9:  -149.14312582446334   -8.58763e-08   1.52328e-07 DIIS
   @DF-RHF iter  10:  -149.14312583203849   -7.57515e-09   3.78422e-08 DIIS
   @DF-RHF iter  11:  -149.14312583251220   -4.73705e-10   7.22644e-09 DIIS
  Energy and wave function converged.


  ==> Post-Iterations <==

    Orbital Energies [Eh]
    ---------------------

    Doubly Occupied:                                                      

       1A    -15.581651     2A    -15.519545     3A    -11.314764  
       4A     -1.258999     5A     -1.137045     6A     -0.829937  
       7A     -0.745809     8A     -0.639650     9A     -0.615820  
      10A     -0.530065    11A     -0.419651    12A     -0.359456  

    Virtual:                                                              

      13A      0.021401    14A      0.030584    15A      0.036955  
      16A      0.050165    17A      0.051703    18A      0.070303  
      19A      0.074815    20A      0.074881    21A      0.086380  
      22A      0.087966    23A      0.097337    24A      0.113147  
      25A      0.126410    26A      0.128103    27A      0.130924  
      28A      0.137142    29A      0.139716    30A      0.143062  
      31A      0.150111    32A      0.161417    33A      0.165029  
      34A      0.167033    35A      0.187787    36A      0.196096  
      37A      0.202416    38A      0.212213    39A      0.219037  
      40A      0.223354    41A      0.227815    42A      0.239929  
      43A      0.249203    44A      0.253311    45A      0.276413  
      46A      0.290088    47A      0.297491    48A      0.298757  
      49A      0.306606    50A      0.308639    51A      0.317096  
      52A      0.320801    53A      0.331693    54A      0.343718  
      55A      0.350004    56A      0.354045    57A      0.358939  
      58A      0.368016    59A      0.370851    60A      0.372578  
      61A      0.380228    62A      0.380810    63A      0.391283  
      64A      0.396700    65A      0.399746    66A      0.400841  
      67A      0.417274    68A      0.419176    69A      0.429580  
      70A      0.435586    71A      0.444668    72A      0.456086  
      73A      0.458061    74A      0.464163    75A      0.471971  
      76A      0.482076    77A      0.503342    78A      0.508222  
      79A      0.514151    80A      0.525053    81A      0.531896  
      82A      0.536605    83A      0.553027    84A      0.565185  
      85A      0.573414    86A      0.591624    87A      0.595304  
      88A      0.614657    89A      0.631493    90A      0.638157  
      91A      0.642897    92A      0.653164    93A      0.657827  
      94A      0.663498    95A      0.678866    96A      0.695579  
      97A      0.702198    98A      0.712953    99A      0.714016  
     100A      0.730152   101A      0.736116   102A      0.754702  
     103A      0.765613   104A      0.767599   105A      0.777521  
     106A      0.787098   107A      0.791676   108A      0.801422  
     109A      0.807992   110A      0.819109   111A      0.821802  
     112A      0.838291   113A      0.838305   114A      0.844434  
     115A      0.850326   116A      0.872514   117A      0.882007  
     118A      0.897715   119A      0.901025   120A      0.910818  
     121A      0.915702   122A      0.933800   123A      0.934014  
     124A      0.941050   125A      0.948178   126A      0.953928  
     127A      0.969198   128A      0.989859   129A      0.991371  
     130A      0.993855   131A      1.015062   132A      1.017118  
     133A      1.028363   134A      1.039675   135A      1.042280  
     136A      1.045972   137A      1.057440   138A      1.084276  
     139A      1.086069   140A      1.093562   141A      1.095770  
     142A      1.097480   143A      1.104980   144A      1.128094  
     145A      1.129288   146A      1.132504   147A      1.139876  
     148A      1.151245   149A      1.160715   150A      1.190142  
     151A      1.191576   152A      1.208383   153A      1.218853  
     154A      1.229984   155A      1.239718   156A      1.247199  
     157A      1.265561   158A      1.280864   159A      1.282438  
     160A      1.288655   161A      1.297509   162A      1.315625  
     163A      1.331398   164A      1.335502   165A      1.356511  
     166A      1.361086   167A      1.375351   168A      1.383356  
     169A      1.386567   170A      1.412515   171A      1.418453  
     172A      1.430388   173A      1.440269   174A      1.452642  
     175A      1.473117   176A      1.476926   177A      1.482729  
     178A      1.501971   179A      1.503283   180A      1.507382  
     181A      1.508729   182A      1.524905   183A      1.533169  
     184A      1.533690   185A      1.573920   186A      1.585009  
     187A      1.594846   188A      1.604277   189A      1.614908  
     190A      1.641467   191A      1.649634   192A      1.651438  
     193A      1.661013   194A      1.674169   195A      1.691283  
     196A      1.701338   197A      1.702292   198A      1.710811  
     199A      1.725710   200A      1.736197   201A      1.746805  
     202A      1.756925   203A      1.771240   204A      1.778150  
     205A      1.782126   206A      1.796322   207A      1.798837  
     208A      1.828690   209A      1.844605   210A      1.847601  
     211A      1.874844   212A      1.895079   213A      1.905087  
     214A      1.915931   215A      1.940822   216A      1.974853  
     217A      2.003129   218A      2.028188   219A      2.035729  
     220A      2.043921   221A      2.063024   222A      2.074272  
     223A      2.086035   224A      2.097184   225A      2.104151  
     226A      2.147037   227A      2.163692   228A      2.174240  
     229A      2.185832   230A      2.203790   231A      2.213803  
     232A      2.225712   233A      2.252998   234A      2.294600  
     235A      2.302819   236A      2.342547   237A      2.351893  
     238A      2.354572   239A      2.364436   240A      2.395332  
     241A      2.399400   242A      2.406787   243A      2.414070  
     244A      2.455208   245A      2.464355   246A      2.469733  
     247A      2.492434   248A      2.511222   249A      2.519898  
     250A      2.536260   251A      2.560518   252A      2.570032  
     253A      2.575579   254A      2.608228   255A      2.616458  
     256A      2.679201   257A      2.688607   258A      2.701776  
     259A      2.711904   260A      2.715956   261A      2.720654  
     262A      2.741734   263A      2.752969   264A      2.787945  
     265A      2.812810   266A      2.827951   267A      2.852593  
     268A      2.872372   269A      2.906659   270A      2.954808  
     271A      2.999473   272A      3.008958   273A      3.029830  
     274A      3.075404   275A      3.083999   276A      3.109128  
     277A      3.127682   278A      3.163103   279A      3.173222  
     280A      3.182563   281A      3.249365   282A      3.270860  
     283A      3.315524   284A      3.361662   285A      3.437718  
     286A      3.445168   287A      3.470754   288A      3.511121  
     289A      3.543977   290A      3.587267   291A      3.622051  
     292A      3.659402   293A      3.697540   294A      3.754769  
     295A      3.820092   296A      3.823250   297A      3.835690  
     298A      3.876387   299A      3.878950   300A      3.905052  
     301A      3.991444   302A      4.034558   303A      4.066912  
     304A      4.087837   305A      4.096699   306A      4.137238  
     307A      4.145851   308A      4.158498   309A      4.174131  
     310A      4.178282   311A      4.218553   312A      4.252771  
     313A      4.267572   314A      4.316815   315A      4.328589  
     316A      4.344470   317A      4.387143   318A      4.394621  
     319A      4.442985   320A      4.443015   321A      4.452028  
     322A      4.467003   323A      4.501254   324A      4.539814  
     325A      4.567475   326A      4.580034   327A      4.602410  
     328A      4.620982   329A      4.642058   330A      4.675016  
     331A      4.692219   332A      4.698753   333A      4.739122  
     334A      4.770017   335A      4.778378   336A      4.789612  
     337A      4.790724   338A      4.824414   339A      4.853660  
     340A      4.873161   341A      4.886746   342A      4.890316  
     343A      4.904440   344A      4.906782   345A      4.921773  
     346A      4.932270   347A      4.955183   348A      4.976508  
     349A      4.988837   350A      5.007459   351A      5.023588  
     352A      5.024181   353A      5.056462   354A      5.067962  
     355A      5.100244   356A      5.132395   357A      5.136727  
     358A      5.176854   359A      5.211991   360A      5.234093  
     361A      5.244231   362A      5.274237   363A      5.305504  
     364A      5.315100   365A      5.316560   366A      5.331835  
     367A      5.356393   368A      5.373287   369A      5.427356  
     370A      5.439714   371A      5.458880   372A      5.479138  
     373A      5.489022   374A      5.526376   375A      5.533679  
     376A      5.554290   377A      5.564910   378A      5.573794  
     379A      5.626018   380A      5.641697   381A      5.648546  
     382A      5.744373   383A      5.750849   384A      5.777352  
     385A      5.792707   386A      5.797374   387A      5.843161  
     388A      5.857506   389A      5.904696   390A      5.936813  
     391A      5.980229   392A      5.985154   393A      6.031545  
     394A      6.071381   395A      6.087674   396A      6.122941  
     397A      6.125841   398A      6.147426   399A      6.200869  
     400A      6.228743   401A      6.240182   402A      6.274826  
     403A      6.300581   404A      6.316912   405A      6.324013  
     406A      6.413245   407A      6.459021   408A      6.479651  
     409A      6.507546   410A      6.571555   411A      6.613332  
     412A      6.613461   413A      6.625347   414A      6.662461  
     415A      6.699010   416A      6.721674   417A      6.749286  
     418A      6.766937   419A      6.902087   420A      6.927566  
     421A      6.928524   422A      7.021269   423A      7.053428  
     424A      7.106154   425A      7.298519   426A      7.384168  
     427A      7.430137   428A      7.506012   429A      7.579400  
     430A      7.594179   431A      7.655242   432A      7.677765  
     433A      7.688308   434A      7.755733   435A      7.779842  
     436A      7.801750   437A      7.851596   438A      8.028277  
     439A      8.290852   440A      8.382338   441A      8.510579  
     442A      8.611855   443A      9.042832   444A      9.345078  
     445A      9.459159   446A      9.467159   447A      9.584830  
     448A     10.193535   449A     10.802384   450A     11.274257  
     451A     11.665877   452A     11.801875   453A     12.145391  
     454A     12.917271   455A     17.256164   456A     17.689537  
     457A     19.085230   458A     52.052863   459A     59.490554  
     460A     62.725820  

    Final Occupation by Irrep:
              A 
    DOCC [    12 ]

  @DF-RHF Final Energy:  -149.14312583251220

   => Energetics <=

    Nuclear Repulsion Energy =             72.1807096948148796
    One-Electron Energy =                -344.7428838270780034
    Two-Electron Energy =                 123.4190482997509264
    Total Energy =                       -149.1431258325121973

Computation Completed


Properties will be evaluated at   0.000000,   0.000000,   0.000000 [a0]

Properties computed using the SCF density matrix

  Nuclear Dipole Moment: [e a0]
     X:   -74.6032      Y:     3.8507      Z:    -0.0000

  Electronic Dipole Moment: [e a0]
     X:    73.7809      Y:    -4.8430      Z:     0.0000

  Dipole Moment: [e a0]
     X:    -0.8223      Y:    -0.9923      Z:     0.0000     Total:     1.2887

  Dipole Moment: [D]
     X:    -2.0901      Y:    -2.5221      Z:     0.0000     Total:     3.2755


*** tstop() called on node54.bme.utexas.edu at Mon Sep  9 22:06:32 2019
Module time:
	user time   =      48.61 seconds =       0.81 minutes
	system time =       1.16 seconds =       0.02 minutes
	total time  =         14 seconds =       0.23 minutes
Total time:
	user time   =     179.39 seconds =       2.99 minutes
	system time =       3.64 seconds =       0.06 minutes
	total time  =         50 seconds =       0.83 minutes
  Constructing Basis Sets for SAPT...

   => Loading Basis Set <=

    Name: (AUG-CC-PVTZ AUX)
    Role: RIFIT
    Keyword: DF_BASIS_SAPT
    atoms 1, 8                    entry C          line   148 file /home/xy3866/psi4conda/share/psi4/basis/aug-cc-pvtz-ri.gbs 
    atoms 2, 4, 6-7, 9, 11, 13-14 entry H          line    30 file /home/xy3866/psi4conda/share/psi4/basis/aug-cc-pvtz-ri.gbs 
    atoms 3, 5, 10, 12            entry N          line   206 file /home/xy3866/psi4conda/share/psi4/basis/aug-cc-pvtz-ri.gbs 


  //>>>>>>>>>>>>>>>>>>>>>>>>>>>>>>>>>>>//
  //               SAPT2+              //
  //<<<<<<<<<<<<<<<<<<<<<<<<<<<<<<<<<<<//


*** tstart() called on node54.bme.utexas.edu
*** at Mon Sep  9 22:06:32 2019

        SAPT2+  
    Ed Hohenstein
     6 June 2009

      Orbital Information
  --------------------------
    NSO        =       460
    NMO        =       460
    NRI        =      1004
    NOCC A     =        12
    NOCC B     =        12
    FOCC A     =         3
    FOCC B     =         3
    NVIR A     =       448
    NVIR B     =       448

    Estimated memory usage: 2305.7 MB

    Natural Orbital Cutoff:   1.000E-06
    Disp(T3) Truncation:            Yes
    CCD (vv|vv) Truncation:         Yes
    MBPT T2 Truncation:             Yes

    Monomer A: 246 virtual orbitals dropped
    Monomer B: 246 virtual orbitals dropped

    Elst10,r            =    -0.054819171309 [Eh]
    Exch10 (S^2)        =     0.065563025570 [Eh]
    Exch10              =     0.067106069793 [Eh]
    Ind20,r (A<-B)      =    -0.016308093480 [Eh]
    Ind20,r (B<-A)      =    -0.016308093948 [Eh]
    Ind20,r             =    -0.032616187427 [Eh]
    Exch-Ind20,r (A<-B) =     0.009191651531 [Eh]
    Exch-Ind20,r (B<-A) =     0.009191652339 [Eh]
    Exch-Ind20,r        =     0.018383303870 [Eh]
    Disp20              =    -0.020962446586 [Eh]
    Disp20 (NO)         =    -0.018374303396 [Eh]
    Exch-Disp20         =     0.004537399712 [Eh]
    Elst12,r            =    -0.000134902527 [Eh]
    Exch11              =     0.000944226142 [Eh]
    Exch12              =     0.004643156425 [Eh]
    Ind22               =    -0.003288391782 [Eh]
    Disp21              =     0.001629462935 [Eh]
    Disp22 (SDQ)        =     0.000311465217 [Eh]

    (i =   1 of   9)         33 seconds
    (i =   2 of   9)         67 seconds
    (i =   3 of   9)        101 seconds
    (i =   4 of   9)        134 seconds
    (i =   5 of   9)        168 seconds
    (i =   6 of   9)        201 seconds
    (i =   7 of   9)        235 seconds
    (i =   8 of   9)        268 seconds
    (i =   9 of   9)        302 seconds

    Disp220 (T)         =    -0.001571743761 [Eh]

    (i =   1 of   9)         34 seconds
    (i =   2 of   9)         67 seconds
    (i =   3 of   9)        100 seconds
    (i =   4 of   9)        134 seconds
    (i =   5 of   9)        165 seconds
    (i =   6 of   9)        195 seconds
    (i =   7 of   9)        225 seconds
    (i =   8 of   9)        256 seconds
    (i =   9 of   9)        286 seconds

    Disp202 (T)         =    -0.001571743780 [Eh]

    Disp22 (T)          =    -0.003143487541 [Eh]

    Est. Disp220 (T)    =    -0.001793134353 [Eh]
    Est. Disp202 (T)    =    -0.001793134375 [Eh]

    Est. Disp22 (T)     =    -0.003586268728 [Eh]

    SAPT Results 
  --------------------------------------------------------------------------------------------------------
    Electrostatics                -54.95407384 [mEh]     -34.48420196 [kcal/mol]    -144.28190098 [kJ/mol]
      Elst10,r                    -54.81917131 [mEh]     -34.39954934 [kcal/mol]    -143.92771444 [kJ/mol]
      Elst12,r                     -0.13490253 [mEh]      -0.08465261 [kcal/mol]      -0.35418654 [kJ/mol]

    Exchange                       72.69345236 [mEh]      45.61583004 [kcal/mol]     190.85663288 [kJ/mol]
      Exch10                       67.10606979 [mEh]      42.10969454 [kcal/mol]     176.18696197 [kJ/mol]
      Exch10(S^2)                  65.56302557 [mEh]      41.14141967 [kcal/mol]     172.13569992 [kJ/mol]
      Exch11(S^2)                   0.94422614 [mEh]       0.59251085 [kcal/mol]       2.47906539 [kJ/mol]
      Exch12(S^2)                   4.64315643 [mEh]       2.91362465 [kcal/mol]      12.19060552 [kJ/mol]

    Induction                     -27.21873522 [mEh]     -17.08001421 [kcal/mol]     -71.46277946 [kJ/mol]
      Ind20,r                     -32.61618743 [mEh]     -20.46696661 [kcal/mol]     -85.63378829 [kJ/mol]
      Ind22                        -3.28839178 [mEh]      -2.06349700 [kcal/mol]      -8.63367143 [kJ/mol]
      Exch-Ind20,r                 18.38330387 [mEh]      11.53569734 [kcal/mol]      48.26535766 [kJ/mol]
      Exch-Ind22                    1.85342035 [mEh]       1.16303883 [kcal/mol]       4.86615445 [kJ/mol]
      delta HF,r (2)              -11.55088022 [mEh]      -7.24828677 [kcal/mol]     -30.32683185 [kJ/mol]

    Dispersion                    -18.07038745 [mEh]     -11.33933932 [kcal/mol]     -47.44379571 [kJ/mol]
      Disp20                      -20.96244659 [mEh]     -13.15413383 [kcal/mol]     -55.03689593 [kJ/mol]
      Disp21                        1.62946294 [mEh]       1.02250343 [kcal/mol]       4.27815435 [kJ/mol]
      Disp22 (SDQ)                  0.31146522 [mEh]       0.19544737 [kcal/mol]       0.81775181 [kJ/mol]
      Disp22 (T)                   -3.14348754 [mEh]      -1.97256821 [kcal/mol]      -8.25322540 [kJ/mol]
      Est. Disp22 (T)              -3.58626873 [mEh]      -2.25041760 [kcal/mol]      -9.41574725 [kJ/mol]
      Exch-Disp20                   4.53739971 [mEh]       2.84726131 [kcal/mol]      11.91294130 [kJ/mol]

  Total HF                        -13.49686530 [mEh]      -8.46941084 [kcal/mol]     -35.43601495 [kJ/mol]
  Total SAPT0                     -29.92191217 [mEh]     -18.77628336 [kcal/mol]     -78.55996958 [kJ/mol]
  Total SAPT2                     -25.90440357 [mEh]     -16.25525865 [kcal/mol]     -68.01200219 [kJ/mol]
  Total SAPT2+                    -27.54974414 [mEh]     -17.28772545 [kcal/mol]     -72.33184328 [kJ/mol]

  Special recipe for scaled SAPT0 (see Manual):
    Electrostatics sSAPT0         -54.81917131 [mEh]     -34.39954934 [kcal/mol]    -143.92771444 [kJ/mol]
    Exchange sSAPT0                67.10606979 [mEh]      42.10969454 [kcal/mol]     176.18696197 [kJ/mol]
    Induction sSAPT0              -24.45500741 [mEh]     -15.34574883 [kcal/mol]     -64.20661311 [kJ/mol]
    Dispersion sSAPT0             -16.09708087 [mEh]     -10.10107074 [kcal/mol]     -42.26287999 [kJ/mol]
  Total sSAPT0                    -28.26518979 [mEh]     -17.73667437 [kcal/mol]     -74.21024557 [kJ/mol]
  --------------------------------------------------------------------------------------------------------

*** tstop() called on node54.bme.utexas.edu at Mon Sep  9 22:21:10 2019
Module time:
	user time   =    3308.80 seconds =      55.15 minutes
	system time =      60.77 seconds =       1.01 minutes
	total time  =        878 seconds =      14.63 minutes
Total time:
	user time   =    3488.50 seconds =      58.14 minutes
	system time =      64.42 seconds =       1.07 minutes
	total time  =        928 seconds =      15.47 minutes

    Psi4 stopped on: Monday, 09 September 2019 10:21PM
    Psi4 wall time for execution: 0:15:27.72

*** Psi4 exiting successfully. Buy a developer a beer!
