
    -----------------------------------------------------------------------
          Psi4: An Open-Source Ab Initio Electronic Structure Package
                               Psi4 1.3.2 release

                         Git: Rev {HEAD} ecbda83 


    R. M. Parrish, L. A. Burns, D. G. A. Smith, A. C. Simmonett,
    A. E. DePrince III, E. G. Hohenstein, U. Bozkaya, A. Yu. Sokolov,
    R. Di Remigio, R. M. Richard, J. F. Gonthier, A. M. James,
    H. R. McAlexander, A. Kumar, M. Saitow, X. Wang, B. P. Pritchard,
    P. Verma, H. F. Schaefer III, K. Patkowski, R. A. King, E. F. Valeev,
    F. A. Evangelista, J. M. Turney, T. D. Crawford, and C. D. Sherrill,
    J. Chem. Theory Comput. 13(7) pp 3185--3197 (2017).
    (doi: 10.1021/acs.jctc.7b00174)


                         Additional Contributions by
    P. Kraus, H. Kruse, M. H. Lechner, M. C. Schieber, R. A. Shaw,
    A. Alenaizan, R. Galvelis, Z. L. Glick, S. Lehtola, and J. P. Misiewicz

    -----------------------------------------------------------------------


    Psi4 started on: Monday, 09 September 2019 05:15PM

    Process ID: 51882
    Host:       node54.bme.utexas.edu
    PSIDATADIR: /home/xy3866/psi4conda/share/psi4
    Memory:     500.0 MiB
    Threads:    4
    
  ==> Input File <==

--------------------------------------------------------------------------
#psi4
#
memory 32 gb

molecule  {
0 1
  C       -2.0482690     0.2828850     0.0000130
  H       -3.1457830     0.3491130    -0.0000080
  O       -1.3512910     1.2933720    -0.0000010
  N       -1.5923150    -0.9782630     0.0000040
  H       -0.5837530    -1.1752650     0.0000030
  H       -2.2528990    -1.7321960    -0.0000070
--
0 1
  C        2.2077015    -0.2714993     0.0000040
  H        3.2976135    -0.2977673    -0.0000000
  N        1.4757955    -1.3331583     0.0000020
  H        2.0755605    -2.1494772    -0.0000040
  N        1.6955265     0.9734428    -0.0000000
  H        0.6888865     1.1234187    -0.0000010
  H        2.3114135     1.7609957    -0.0000050
units angstrom
no_reorient  #important for SAPT in psi4, default
symmetry c1  #important for SAPT in psi4, default
}

set {
basis aug-cc-pVTZ
scf_type DF
freeze_core True
}
energy('sapt2+')
--------------------------------------------------------------------------

  Memory set to  29.802 GiB by Python driver.

  //>>>>>>>>>>>>>>>>>>>>>>>>>>>>>>>>>>>//
  //              Dimer HF             //
  //<<<<<<<<<<<<<<<<<<<<<<<<<<<<<<<<<<<//


*** tstart() called on node54.bme.utexas.edu
*** at Mon Sep  9 17:15:08 2019

   => Loading Basis Set <=

    Name: AUG-CC-PVTZ
    Role: ORBITAL
    Keyword: BASIS
    atoms 1, 7                 entry C          line   235 file /home/xy3866/psi4conda/share/psi4/basis/aug-cc-pvtz.gbs 
    atoms 2, 5-6, 8, 10, 12-13 entry H          line    36 file /home/xy3866/psi4conda/share/psi4/basis/aug-cc-pvtz.gbs 
    atoms 3                    entry O          line   327 file /home/xy3866/psi4conda/share/psi4/basis/aug-cc-pvtz.gbs 
    atoms 4, 9, 11             entry N          line   281 file /home/xy3866/psi4conda/share/psi4/basis/aug-cc-pvtz.gbs 


         ---------------------------------------------------------
                                   SCF
               by Justin Turney, Rob Parrish, Andy Simmonett
                          and Daniel G. A. Smith
                              RHF Reference
                        4 Threads,  30517 MiB Core
         ---------------------------------------------------------

  ==> Geometry <==

    Molecular point group: c1
    Full point group: C1

    Geometry (in Angstrom), charge = 0, multiplicity = 1:

       Center              X                  Y                   Z               Mass       
    ------------   -----------------  -----------------  -----------------  -----------------
         C           -2.102391676327     0.283441768845     0.000010194538    12.000000000000
         H           -3.199905676327     0.349669768845    -0.000010805462     1.007825032230
         O           -1.405413676327     1.293928768845    -0.000003805462    15.994914619570
         N           -1.646437676327    -0.977706231155     0.000001194538    14.003074004430
         H           -0.637875676327    -1.174708231155     0.000000194538     1.007825032230
         H           -2.307021676327    -1.731639231155    -0.000009805462     1.007825032230
         C            2.153578823673    -0.270942531155     0.000001194538    12.000000000000
         H            3.243490823673    -0.297210531155    -0.000002805462     1.007825032230
         N            1.421672823673    -1.332601531155    -0.000000805462    14.003074004430
         H            2.021437823673    -2.148920431155    -0.000006805462     1.007825032230
         N            1.641403823673     0.973999568845    -0.000002805462    14.003074004430
         H            0.634763823673     1.123975468845    -0.000003805462     1.007825032230
         H            2.257290823673     1.761552468845    -0.000007805462     1.007825032230

  Running in c1 symmetry.

  Rotational constants: A =      0.18458  B =      0.05954  C =      0.04502 [cm^-1]
  Rotational constants: A =   5533.64306  B =   1784.87578  C =   1349.57164 [MHz]
  Nuclear repulsion =  225.931038834308424

  Charge       = 0
  Multiplicity = 1
  Electrons    = 48
  Nalpha       = 24
  Nbeta        = 24

  ==> Algorithm <==

  SCF Algorithm Type is DF.
  DIIS enabled.
  MOM disabled.
  Fractional occupation disabled.
  Guess Type is SAD.
  Energy threshold   = 1.00e-08
  Density threshold  = 1.00e-08
  Integral threshold = 0.00e+00

  ==> Primary Basis <==

  Basis Set: AUG-CC-PVTZ
    Blend: AUG-CC-PVTZ
    Number of shells: 147
    Number of basis function: 437
    Number of Cartesian functions: 505
    Spherical Harmonics?: true
    Max angular momentum: 3

   => Loading Basis Set <=

    Name: (AUG-CC-PVTZ AUX)
    Role: JKFIT
    Keyword: DF_BASIS_SCF
    atoms 1, 7                 entry C          line   162 file /home/xy3866/psi4conda/share/psi4/basis/aug-cc-pvtz-jkfit.gbs 
    atoms 2, 5-6, 8, 10, 12-13 entry H          line    70 file /home/xy3866/psi4conda/share/psi4/basis/aug-cc-pvtz-jkfit.gbs 
    atoms 3                    entry O          line   286 file /home/xy3866/psi4conda/share/psi4/basis/aug-cc-pvtz-jkfit.gbs 
    atoms 4, 9, 11             entry N          line   224 file /home/xy3866/psi4conda/share/psi4/basis/aug-cc-pvtz-jkfit.gbs 

  ==> Pre-Iterations <==

   -------------------------------------------------------
    Irrep   Nso     Nmo     Nalpha   Nbeta   Ndocc  Nsocc
   -------------------------------------------------------
     A        437     437       0       0       0       0
   -------------------------------------------------------
    Total     437     437      24      24      24       0
   -------------------------------------------------------

  ==> Integral Setup <==

  ==> DiskDFJK: Density-Fitted J/K Matrices <==

    J tasked:                  Yes
    K tasked:                  Yes
    wK tasked:                  No
    OpenMP threads:              4
    Integrals threads:           4
    Memory [MiB]:            22888
    Algorithm:                Core
    Integral Cache:           SAVE
    Schwarz Cutoff:          1E-12
    Fitting Condition:       1E-10

   => Auxiliary Basis Set <=

  Basis Set: (AUG-CC-PVTZ AUX)
    Blend: AUG-CC-PVTZ-JKFIT
    Number of shells: 278
    Number of basis function: 946
    Number of Cartesian functions: 1171
    Spherical Harmonics?: true
    Max angular momentum: 4

  Minimum eigenvalue in the overlap matrix is 2.6946616618E-05.
  Using Symmetric Orthogonalization.

  SCF Guess: Superposition of Atomic Densities via on-the-fly atomic UHF.

  ==> Iterations <==

                           Total Energy        Delta E     RMS |[F,P]|

   @DF-RHF iter SAD:  -316.76107331044369   -3.16761e+02   0.00000e+00 
   @DF-RHF iter   1:  -317.92420019040276   -1.16313e+00   1.68271e-03 DIIS
   @DF-RHF iter   2:  -318.09293636134231   -1.68736e-01   1.00712e-03 DIIS
   @DF-RHF iter   3:  -318.16227485505954   -6.93385e-02   1.53641e-04 DIIS
   @DF-RHF iter   4:  -318.16478864881350   -2.51379e-03   7.10183e-05 DIIS
   @DF-RHF iter   5:  -318.16529413474024   -5.05486e-04   1.36448e-05 DIIS
   @DF-RHF iter   6:  -318.16534094198801   -4.68072e-05   6.57876e-06 DIIS
   @DF-RHF iter   7:  -318.16535123283484   -1.02908e-05   2.84288e-06 DIIS
   @DF-RHF iter   8:  -318.16535349045182   -2.25762e-06   1.04229e-06 DIIS
   @DF-RHF iter   9:  -318.16535376746992   -2.77018e-07   4.17079e-07 DIIS
   @DF-RHF iter  10:  -318.16535381192597   -4.44560e-08   1.32992e-07 DIIS
   @DF-RHF iter  11:  -318.16535381635350   -4.42753e-09   3.81139e-08 DIIS
   @DF-RHF iter  12:  -318.16535381671497   -3.61467e-10   9.39703e-09 DIIS
  Energy and wave function converged.


  ==> Post-Iterations <==

    Orbital Energies [Eh]
    ---------------------

    Doubly Occupied:                                                      

       1A    -20.521670     2A    -15.575923     3A    -15.566352  
       4A    -15.523644     5A    -11.348706     6A    -11.318550  
       7A     -1.373523     8A     -1.255218     9A     -1.207464  
      10A     -1.137980    11A     -0.842069    12A     -0.822991  
      13A     -0.744096    14A     -0.735255    15A     -0.674599  
      16A     -0.630168    17A     -0.615585    18A     -0.596650  
      19A     -0.562423    20A     -0.525177    21A     -0.444809  
      22A     -0.420268    23A     -0.409147    24A     -0.359912  

    Virtual:                                                              

      25A      0.026943    26A      0.030955    27A      0.039233  
      28A      0.049684    29A      0.055794    30A      0.074552  
      31A      0.079453    32A      0.085947    33A      0.089639  
      34A      0.106238    35A      0.121299    36A      0.128870  
      37A      0.133106    38A      0.134735    39A      0.137795  
      40A      0.145144    41A      0.148430    42A      0.154579  
      43A      0.162169    44A      0.173316    45A      0.175123  
      46A      0.189165    47A      0.201983    48A      0.205997  
      49A      0.213405    50A      0.217578    51A      0.247470  
      52A      0.251356    53A      0.255873    54A      0.257860  
      55A      0.272265    56A      0.280506    57A      0.287701  
      58A      0.294321    59A      0.297917    60A      0.308357  
      61A      0.316860    62A      0.317124    63A      0.323978  
      64A      0.326183    65A      0.340879    66A      0.350829  
      67A      0.362947    68A      0.365958    69A      0.366808  
      70A      0.376023    71A      0.385931    72A      0.388877  
      73A      0.396337    74A      0.396690    75A      0.410420  
      76A      0.417289    77A      0.425061    78A      0.434586  
      79A      0.439239    80A      0.445857    81A      0.447129  
      82A      0.451759    83A      0.464114    84A      0.494631  
      85A      0.497746    86A      0.505853    87A      0.523232  
      88A      0.534326    89A      0.535219    90A      0.536865  
      91A      0.551264    92A      0.567875    93A      0.571913  
      94A      0.576149    95A      0.591063    96A      0.597300  
      97A      0.612642    98A      0.622412    99A      0.635099  
     100A      0.640926   101A      0.652772   102A      0.667187  
     103A      0.672634   104A      0.681738   105A      0.686853  
     106A      0.690376   107A      0.700697   108A      0.725820  
     109A      0.731759   110A      0.736932   111A      0.753280  
     112A      0.768807   113A      0.772010   114A      0.772693  
     115A      0.773572   116A      0.799882   117A      0.806144  
     118A      0.843614   119A      0.851746   120A      0.859979  
     121A      0.865497   122A      0.877588   123A      0.889906  
     124A      0.911530   125A      0.912538   126A      0.916487  
     127A      0.919536   128A      0.928366   129A      0.934336  
     130A      0.942483   131A      0.942600   132A      0.948655  
     133A      0.967520   134A      0.975433   135A      0.979475  
     136A      0.982112   137A      0.990929   138A      0.992545  
     139A      1.018201   140A      1.029600   141A      1.037503  
     142A      1.045676   143A      1.052975   144A      1.054844  
     145A      1.074794   146A      1.080266   147A      1.087143  
     148A      1.098991   149A      1.109769   150A      1.114867  
     151A      1.117985   152A      1.129844   153A      1.133775  
     154A      1.147390   155A      1.153648   156A      1.188118  
     157A      1.189593   158A      1.195527   159A      1.202216  
     160A      1.226322   161A      1.231369   162A      1.239175  
     163A      1.250506   164A      1.254088   165A      1.266722  
     166A      1.286782   167A      1.287130   168A      1.307638  
     169A      1.312107   170A      1.335854   171A      1.337549  
     172A      1.354372   173A      1.360477   174A      1.370935  
     175A      1.371156   176A      1.388839   177A      1.412382  
     178A      1.412802   179A      1.418689   180A      1.422764  
     181A      1.445868   182A      1.459458   183A      1.464777  
     184A      1.470845   185A      1.475679   186A      1.480087  
     187A      1.497401   188A      1.504804   189A      1.517389  
     190A      1.527642   191A      1.550075   192A      1.560892  
     193A      1.579907   194A      1.597419   195A      1.599908  
     196A      1.614415   197A      1.632492   198A      1.653856  
     199A      1.666592   200A      1.680612   201A      1.682111  
     202A      1.709856   203A      1.727009   204A      1.736332  
     205A      1.754439   206A      1.781263   207A      1.802989  
     208A      1.803652   209A      1.838160   210A      1.873504  
     211A      1.874173   212A      1.933053   213A      1.956396  
     214A      1.964983   215A      1.980063   216A      1.982592  
     217A      2.006909   218A      2.009885   219A      2.040759  
     220A      2.064752   221A      2.076420   222A      2.079793  
     223A      2.107056   224A      2.117044   225A      2.132338  
     226A      2.144217   227A      2.151474   228A      2.155800  
     229A      2.186369   230A      2.197447   231A      2.211007  
     232A      2.238618   233A      2.243222   234A      2.253959  
     235A      2.303619   236A      2.320707   237A      2.340778  
     238A      2.347746   239A      2.352473   240A      2.399899  
     241A      2.409618   242A      2.429747   243A      2.435114  
     244A      2.446176   245A      2.464467   246A      2.471964  
     247A      2.515776   248A      2.542485   249A      2.545848  
     250A      2.547854   251A      2.579017   252A      2.607872  
     253A      2.612155   254A      2.620125   255A      2.642830  
     256A      2.647261   257A      2.675237   258A      2.682649  
     259A      2.691987   260A      2.692505   261A      2.709203  
     262A      2.727564   263A      2.753822   264A      2.770303  
     265A      2.836895   266A      2.847557   267A      2.881552  
     268A      2.920030   269A      2.945988   270A      2.955049  
     271A      2.980198   272A      3.047126   273A      3.060413  
     274A      3.116924   275A      3.183305   276A      3.195688  
     277A      3.196646   278A      3.227041   279A      3.303337  
     280A      3.380056   281A      3.384570   282A      3.403764  
     283A      3.429919   284A      3.445369   285A      3.478457  
     286A      3.570979   287A      3.581744   288A      3.616610  
     289A      3.623652   290A      3.682860   291A      3.689642  
     292A      3.718720   293A      3.760632   294A      3.791622  
     295A      3.812197   296A      3.822456   297A      3.825484  
     298A      3.866837   299A      3.889875   300A      3.928818  
     301A      3.976538   302A      4.000399   303A      4.061200  
     304A      4.070707   305A      4.083822   306A      4.089490  
     307A      4.104732   308A      4.122619   309A      4.127001  
     310A      4.159847   311A      4.179486   312A      4.182371  
     313A      4.196854   314A      4.205302   315A      4.227827  
     316A      4.239543   317A      4.257332   318A      4.294093  
     319A      4.307027   320A      4.321460   321A      4.344440  
     322A      4.367592   323A      4.383654   324A      4.388189  
     325A      4.390801   326A      4.426537   327A      4.441527  
     328A      4.455030   329A      4.491328   330A      4.513888  
     331A      4.548154   332A      4.566542   333A      4.570737  
     334A      4.598375   335A      4.610957   336A      4.666020  
     337A      4.682116   338A      4.708532   339A      4.717905  
     340A      4.752234   341A      4.767412   342A      4.780613  
     343A      4.814682   344A      4.832097   345A      4.852439  
     346A      4.869519   347A      4.892215   348A      4.894592  
     349A      4.908504   350A      4.915023   351A      4.931651  
     352A      4.958031   353A      4.986129   354A      5.007377  
     355A      5.029849   356A      5.084139   357A      5.101674  
     358A      5.116641   359A      5.164407   360A      5.194681  
     361A      5.197451   362A      5.231197   363A      5.238241  
     364A      5.238603   365A      5.244317   366A      5.296728  
     367A      5.355930   368A      5.367406   369A      5.416912  
     370A      5.438655   371A      5.450126   372A      5.471092  
     373A      5.499417   374A      5.527276   375A      5.576210  
     376A      5.587770   377A      5.597813   378A      5.637525  
     379A      5.652373   380A      5.687800   381A      5.696082  
     382A      5.716180   383A      5.734824   384A      5.744304  
     385A      5.774764   386A      5.788680   387A      5.823762  
     388A      5.860782   389A      5.882115   390A      5.943296  
     391A      5.964537   392A      5.990989   393A      6.090023  
     394A      6.101370   395A      6.122627   396A      6.150986  
     397A      6.162631   398A      6.203250   399A      6.208178  
     400A      6.273665   401A      6.321853   402A      6.396389  
     403A      6.405938   404A      6.473259   405A      6.548046  
     406A      6.576553   407A      6.612106   408A      6.687682  
     409A      6.708101   410A      6.831037   411A      6.897532  
     412A      6.908883   413A      6.981662   414A      7.016497  
     415A      7.051388   416A      7.091721   417A      7.168294  
     418A      7.217000   419A      7.329475   420A      7.367739  
     421A      7.419490   422A      7.478403   423A      7.565523  
     424A      7.634038   425A      7.641972   426A      7.675321  
     427A      7.753932   428A      7.840801   429A      7.968690  
     430A      8.007684   431A      8.089270   432A     15.807777  
     433A     17.204168   434A     17.390597   435A     17.698722  
     436A     18.733366   437A     19.036998  

    Final Occupation by Irrep:
              A 
    DOCC [    24 ]

  @DF-RHF Final Energy:  -318.16535381671497

   => Energetics <=

    Nuclear Repulsion Energy =            225.9310388343084242
    One-Electron Energy =                -881.7684317162094203
    Two-Electron Energy =                 337.6720390651860271
    Total Energy =                       -318.1653538167149691

Computation Completed


Properties will be evaluated at   0.000000,   0.000000,   0.000000 [a0]

Properties computed using the SCF density matrix

  Nuclear Dipole Moment: [e a0]
     X:     1.8755      Y:    -1.9748      Z:    -0.0000

  Electronic Dipole Moment: [e a0]
     X:    -1.5092      Y:     1.3155      Z:     0.0000

  Dipole Moment: [e a0]
     X:     0.3663      Y:    -0.6593      Z:    -0.0000     Total:     0.7542

  Dipole Moment: [D]
     X:     0.9310      Y:    -1.6757      Z:    -0.0000     Total:     1.9169


*** tstop() called on node54.bme.utexas.edu at Mon Sep  9 17:15:28 2019
Module time:
	user time   =      72.90 seconds =       1.21 minutes
	system time =       1.40 seconds =       0.02 minutes
	total time  =         20 seconds =       0.33 minutes
Total time:
	user time   =      72.90 seconds =       1.21 minutes
	system time =       1.40 seconds =       0.02 minutes
	total time  =         20 seconds =       0.33 minutes

  //>>>>>>>>>>>>>>>>>>>>>>>>>>>>>>>>>>>//
  //            Monomer A HF           //
  //<<<<<<<<<<<<<<<<<<<<<<<<<<<<<<<<<<<//


*** tstart() called on node54.bme.utexas.edu
*** at Mon Sep  9 17:15:28 2019

   => Loading Basis Set <=

    Name: AUG-CC-PVTZ
    Role: ORBITAL
    Keyword: BASIS
    atoms 1, 7                 entry C          line   235 file /home/xy3866/psi4conda/share/psi4/basis/aug-cc-pvtz.gbs 
    atoms 2, 5-6, 8, 10, 12-13 entry H          line    36 file /home/xy3866/psi4conda/share/psi4/basis/aug-cc-pvtz.gbs 
    atoms 3                    entry O          line   327 file /home/xy3866/psi4conda/share/psi4/basis/aug-cc-pvtz.gbs 
    atoms 4, 9, 11             entry N          line   281 file /home/xy3866/psi4conda/share/psi4/basis/aug-cc-pvtz.gbs 


         ---------------------------------------------------------
                                   SCF
               by Justin Turney, Rob Parrish, Andy Simmonett
                          and Daniel G. A. Smith
                              RHF Reference
                        4 Threads,  30517 MiB Core
         ---------------------------------------------------------

  ==> Geometry <==

    Molecular point group: c1
    Full point group: C1

    Geometry (in Angstrom), charge = 0, multiplicity = 1:

       Center              X                  Y                   Z               Mass       
    ------------   -----------------  -----------------  -----------------  -----------------
         C           -2.102391676327     0.283441768845     0.000010194538    12.000000000000
         H           -3.199905676327     0.349669768845    -0.000010805462     1.007825032230
         O           -1.405413676327     1.293928768845    -0.000003805462    15.994914619570
         N           -1.646437676327    -0.977706231155     0.000001194538    14.003074004430
         H           -0.637875676327    -1.174708231155     0.000000194538     1.007825032230
         H           -2.307021676327    -1.731639231155    -0.000009805462     1.007825032230
      Gh(C)           2.153578823673    -0.270942531155     0.000001194538    12.000000000000
      Gh(H)           3.243490823673    -0.297210531155    -0.000002805462     1.007825032230
      Gh(N)           1.421672823673    -1.332601531155    -0.000000805462    14.003074004430
      Gh(H)           2.021437823673    -2.148920431155    -0.000006805462     1.007825032230
      Gh(N)           1.641403823673     0.973999568845    -0.000002805462    14.003074004430
      Gh(H)           0.634763823673     1.123975468845    -0.000003805462     1.007825032230
      Gh(H)           2.257290823673     1.761552468845    -0.000007805462     1.007825032230

  Running in c1 symmetry.

  Rotational constants: A =      0.18458  B =      0.05954  C =      0.04502 [cm^-1]
  Rotational constants: A =   5533.64306  B =   1784.87578  C =   1349.57164 [MHz]
  Nuclear repulsion =   71.120500652173718

  Charge       = 0
  Multiplicity = 1
  Electrons    = 24
  Nalpha       = 12
  Nbeta        = 12

  ==> Algorithm <==

  SCF Algorithm Type is DF.
  DIIS enabled.
  MOM disabled.
  Fractional occupation disabled.
  Guess Type is SAD.
  Energy threshold   = 1.00e-08
  Density threshold  = 1.00e-08
  Integral threshold = 0.00e+00

  ==> Primary Basis <==

  Basis Set: AUG-CC-PVTZ
    Blend: AUG-CC-PVTZ
    Number of shells: 147
    Number of basis function: 437
    Number of Cartesian functions: 505
    Spherical Harmonics?: true
    Max angular momentum: 3

   => Loading Basis Set <=

    Name: (AUG-CC-PVTZ AUX)
    Role: JKFIT
    Keyword: DF_BASIS_SCF
    atoms 1, 7                 entry C          line   162 file /home/xy3866/psi4conda/share/psi4/basis/aug-cc-pvtz-jkfit.gbs 
    atoms 2, 5-6, 8, 10, 12-13 entry H          line    70 file /home/xy3866/psi4conda/share/psi4/basis/aug-cc-pvtz-jkfit.gbs 
    atoms 3                    entry O          line   286 file /home/xy3866/psi4conda/share/psi4/basis/aug-cc-pvtz-jkfit.gbs 
    atoms 4, 9, 11             entry N          line   224 file /home/xy3866/psi4conda/share/psi4/basis/aug-cc-pvtz-jkfit.gbs 

  ==> Pre-Iterations <==

   -------------------------------------------------------
    Irrep   Nso     Nmo     Nalpha   Nbeta   Ndocc  Nsocc
   -------------------------------------------------------
     A        437     437       0       0       0       0
   -------------------------------------------------------
    Total     437     437      12      12      12       0
   -------------------------------------------------------

  ==> Integral Setup <==

  ==> DiskDFJK: Density-Fitted J/K Matrices <==

    J tasked:                  Yes
    K tasked:                  Yes
    wK tasked:                  No
    OpenMP threads:              4
    Integrals threads:           4
    Memory [MiB]:            22888
    Algorithm:                Core
    Integral Cache:           LOAD
    Schwarz Cutoff:          1E-12
    Fitting Condition:       1E-10

   => Auxiliary Basis Set <=

  Basis Set: (AUG-CC-PVTZ AUX)
    Blend: AUG-CC-PVTZ-JKFIT
    Number of shells: 278
    Number of basis function: 946
    Number of Cartesian functions: 1171
    Spherical Harmonics?: true
    Max angular momentum: 4

  Minimum eigenvalue in the overlap matrix is 2.6946616618E-05.
  Using Symmetric Orthogonalization.

  SCF Guess: Superposition of Atomic Densities via on-the-fly atomic UHF.

  ==> Iterations <==

                           Total Energy        Delta E     RMS |[F,P]|

   @DF-RHF iter SAD:  -168.19954658257421   -1.68200e+02   0.00000e+00 
   @DF-RHF iter   1:  -168.87898359146578   -6.79437e-01   1.22474e-03 DIIS
   @DF-RHF iter   2:  -168.95710806956720   -7.81245e-02   8.37995e-04 DIIS
   @DF-RHF iter   3:  -169.00097211630035   -4.38640e-02   1.20125e-04 DIIS
   @DF-RHF iter   4:  -169.00241736440924   -1.44525e-03   5.20249e-05 DIIS
   @DF-RHF iter   5:  -169.00272288926567   -3.05525e-04   1.04687e-05 DIIS
   @DF-RHF iter   6:  -169.00275337753226   -3.04883e-05   4.99512e-06 DIIS
   @DF-RHF iter   7:  -169.00275978788224   -6.41035e-06   2.01043e-06 DIIS
   @DF-RHF iter   8:  -169.00276090947341   -1.12159e-06   6.08481e-07 DIIS
   @DF-RHF iter   9:  -169.00276101497263   -1.05499e-07   1.67892e-07 DIIS
   @DF-RHF iter  10:  -169.00276102327689   -8.30426e-09   4.14374e-08 DIIS
   @DF-RHF iter  11:  -169.00276102368863   -4.11745e-10   7.43020e-09 DIIS
  Energy and wave function converged.


  ==> Post-Iterations <==

    Orbital Energies [Eh]
    ---------------------

    Doubly Occupied:                                                      

       1A    -20.526740     2A    -15.602875     3A    -11.356508  
       4A     -1.376575     5A     -1.226904     6A     -0.853753  
       7A     -0.755414     8A     -0.676734     9A     -0.602587  
      10A     -0.571864    11A     -0.434963    12A     -0.422022  

    Virtual:                                                              

      13A      0.017351    14A      0.028636    15A      0.038161  
      16A      0.050040    17A      0.054908    18A      0.070504  
      19A      0.072420    20A      0.086273    21A      0.086639  
      22A      0.088054    23A      0.106852    24A      0.113933  
      25A      0.121186    26A      0.127703    27A      0.132502  
      28A      0.138413    29A      0.144481    30A      0.148976  
      31A      0.158464    32A      0.167307    33A      0.168242  
      34A      0.185245    35A      0.189851    36A      0.197351  
      37A      0.208820    38A      0.217387    39A      0.242643  
      40A      0.248352    41A      0.254573    42A      0.255393  
      43A      0.265164    44A      0.275609    45A      0.290050  
      46A      0.290487    47A      0.291363    48A      0.304558  
      49A      0.308461    50A      0.318662    51A      0.325805  
      52A      0.337980    53A      0.345585    54A      0.348151  
      55A      0.356636    56A      0.358891    57A      0.362013  
      58A      0.371121    59A      0.373676    60A      0.384090  
      61A      0.385154    62A      0.392149    63A      0.403752  
      64A      0.415050    65A      0.423468    66A      0.425692  
      67A      0.429970    68A      0.431773    69A      0.441981  
      70A      0.449272    71A      0.466024    72A      0.474806  
      73A      0.487063    74A      0.500708    75A      0.510043  
      76A      0.524736    77A      0.530917    78A      0.549087  
      79A      0.561740    80A      0.563233    81A      0.576041  
      82A      0.586512    83A      0.597023    84A      0.614615  
      85A      0.621664    86A      0.630440    87A      0.631722  
      88A      0.636341    89A      0.642574    90A      0.659965  
      91A      0.686181    92A      0.698957    93A      0.707964  
      94A      0.740159    95A      0.741438    96A      0.757590  
      97A      0.763176    98A      0.778094    99A      0.778525  
     100A      0.785803   101A      0.791235   102A      0.794968  
     103A      0.801212   104A      0.809734   105A      0.822165  
     106A      0.824882   107A      0.847861   108A      0.858364  
     109A      0.876292   110A      0.883678   111A      0.884391  
     112A      0.887950   113A      0.897095   114A      0.906533  
     115A      0.914882   116A      0.918243   117A      0.930522  
     118A      0.931639   119A      0.949781   120A      0.957252  
     121A      0.967432   122A      0.978491   123A      0.999425  
     124A      1.001363   125A      1.005963   126A      1.028530  
     127A      1.029917   128A      1.039465   129A      1.050053  
     130A      1.051363   131A      1.070314   132A      1.075947  
     133A      1.076904   134A      1.092328   135A      1.093020  
     136A      1.105793   137A      1.113625   138A      1.119352  
     139A      1.133500   140A      1.142312   141A      1.153085  
     142A      1.169541   143A      1.174191   144A      1.191546  
     145A      1.197628   146A      1.220259   147A      1.223844  
     148A      1.243218   149A      1.254195   150A      1.255744  
     151A      1.279240   152A      1.305382   153A      1.309626  
     154A      1.309697   155A      1.315038   156A      1.322928  
     157A      1.331976   158A      1.360536   159A      1.371803  
     160A      1.391464   161A      1.407233   162A      1.415073  
     163A      1.416299   164A      1.439646   165A      1.450334  
     166A      1.458179   167A      1.470123   168A      1.488978  
     169A      1.496283   170A      1.506703   171A      1.520167  
     172A      1.538114   173A      1.543245   174A      1.567092  
     175A      1.568540   176A      1.580791   177A      1.612502  
     178A      1.620466   179A      1.622323   180A      1.643023  
     181A      1.645828   182A      1.659716   183A      1.660531  
     184A      1.672409   185A      1.686777   186A      1.707582  
     187A      1.717176   188A      1.733988   189A      1.734023  
     190A      1.741718   191A      1.761829   192A      1.769747  
     193A      1.785283   194A      1.789577   195A      1.794773  
     196A      1.808534   197A      1.823741   198A      1.838806  
     199A      1.885569   200A      1.914270   201A      1.929279  
     202A      1.933997   203A      1.951335   204A      1.973524  
     205A      1.979261   206A      2.013671   207A      2.027659  
     208A      2.062342   209A      2.070756   210A      2.084991  
     211A      2.097427   212A      2.111775   213A      2.133032  
     214A      2.169809   215A      2.186586   216A      2.225975  
     217A      2.230061   218A      2.254260   219A      2.275351  
     220A      2.279034   221A      2.315461   222A      2.319325  
     223A      2.341826   224A      2.364296   225A      2.364881  
     226A      2.377713   227A      2.411179   228A      2.419711  
     229A      2.433691   230A      2.460064   231A      2.467266  
     232A      2.479700   233A      2.523836   234A      2.543584  
     235A      2.545562   236A      2.560315   237A      2.583719  
     238A      2.606964   239A      2.623909   240A      2.633948  
     241A      2.663955   242A      2.665406   243A      2.690925  
     244A      2.703922   245A      2.728299   246A      2.738148  
     247A      2.762001   248A      2.770087   249A      2.809475  
     250A      2.831595   251A      2.842369   252A      2.857187  
     253A      2.906413   254A      2.924388   255A      2.929681  
     256A      2.976166   257A      2.980507   258A      3.001258  
     259A      3.019569   260A      3.061394   261A      3.067880  
     262A      3.138954   263A      3.159945   264A      3.163336  
     265A      3.176522   266A      3.192607   267A      3.226058  
     268A      3.277610   269A      3.319817   270A      3.364555  
     271A      3.401523   272A      3.416600   273A      3.445046  
     274A      3.484943   275A      3.531413   276A      3.579563  
     277A      3.605166   278A      3.616626   279A      3.704700  
     280A      3.718907   281A      3.791286   282A      3.831132  
     283A      3.847992   284A      3.855828   285A      3.905020  
     286A      4.054293   287A      4.060763   288A      4.084139  
     289A      4.086031   290A      4.096663   291A      4.141509  
     292A      4.164330   293A      4.183848   294A      4.188494  
     295A      4.218426   296A      4.227139   297A      4.298462  
     298A      4.340546   299A      4.370149   300A      4.410027  
     301A      4.418537   302A      4.424319   303A      4.429800  
     304A      4.442179   305A      4.467838   306A      4.496220  
     307A      4.511830   308A      4.532916   309A      4.571855  
     310A      4.611753   311A      4.649531   312A      4.651035  
     313A      4.684818   314A      4.686647   315A      4.721892  
     316A      4.744251   317A      4.763589   318A      4.791230  
     319A      4.826330   320A      4.851037   321A      4.856590  
     322A      4.857982   323A      4.868659   324A      4.888318  
     325A      4.903839   326A      4.928061   327A      4.931898  
     328A      4.972982   329A      4.986595   330A      5.014377  
     331A      5.015835   332A      5.046100   333A      5.064484  
     334A      5.079498   335A      5.094305   336A      5.170334  
     337A      5.195744   338A      5.198168   339A      5.200808  
     340A      5.226355   341A      5.259497   342A      5.279416  
     343A      5.298661   344A      5.320531   345A      5.348175  
     346A      5.349387   347A      5.367720   348A      5.408262  
     349A      5.439570   350A      5.448775   351A      5.476463  
     352A      5.489225   353A      5.557345   354A      5.573849  
     355A      5.623001   356A      5.645247   357A      5.697211  
     358A      5.721734   359A      5.763646   360A      5.820447  
     361A      5.824958   362A      5.867628   363A      5.886194  
     364A      5.976973   365A      6.006312   366A      6.016550  
     367A      6.042572   368A      6.104602   369A      6.152487  
     370A      6.155557   371A      6.205425   372A      6.242118  
     373A      6.256879   374A      6.327899   375A      6.350505  
     376A      6.396891   377A      6.402679   378A      6.443998  
     379A      6.490984   380A      6.548655   381A      6.590731  
     382A      6.595964   383A      6.625985   384A      6.640980  
     385A      6.716813   386A      6.778158   387A      6.836496  
     388A      6.888821   389A      6.894152   390A      6.895887  
     391A      6.952730   392A      7.029879   393A      7.039233  
     394A      7.079990   395A      7.168075   396A      7.209456  
     397A      7.277250   398A      7.327885   399A      7.359955  
     400A      7.371550   401A      7.398956   402A      7.406925  
     403A      7.585181   404A      7.596160   405A      7.630755  
     406A      7.646741   407A      7.661658   408A      7.663570  
     409A      7.737745   410A      7.739268   411A      7.769919  
     412A      7.938346   413A      7.958473   414A      7.971646  
     415A      8.076310   416A      8.184454   417A      8.305440  
     418A      8.468668   419A      8.577738   420A      8.991436  
     421A      9.316132   422A      9.390383   423A      9.461917  
     424A      9.501135   425A     10.169000   426A     10.736263  
     427A     11.215482   428A     11.619262   429A     11.731490  
     430A     12.081485   431A     12.904300   432A     15.860807  
     433A     17.569996   434A     18.720564   435A     51.504788  
     436A     59.408030   437A     62.680289  

    Final Occupation by Irrep:
              A 
    DOCC [    12 ]

  @DF-RHF Final Energy:  -169.00276102368863

   => Energetics <=

    Nuclear Repulsion Energy =             71.1205006521737175
    One-Electron Energy =                -371.4326432532820377
    Two-Electron Energy =                 131.3093815774197139
    Total Energy =                       -169.0027610236886346

Computation Completed


Properties will be evaluated at   0.000000,   0.000000,   0.000000 [a0]

Properties computed using the SCF density matrix

  Nuclear Dipole Moment: [e a0]
     X:   -78.4757      Y:     5.0105      Z:     0.0000

  Electronic Dipole Moment: [e a0]
     X:    77.8953      Y:    -6.6705      Z:    -0.0000

  Dipole Moment: [e a0]
     X:    -0.5804      Y:    -1.6600      Z:     0.0000     Total:     1.7585

  Dipole Moment: [D]
     X:    -1.4751      Y:    -4.2193      Z:     0.0000     Total:     4.4698


*** tstop() called on node54.bme.utexas.edu at Mon Sep  9 17:15:40 2019
Module time:
	user time   =      41.47 seconds =       0.69 minutes
	system time =       0.84 seconds =       0.01 minutes
	total time  =         12 seconds =       0.20 minutes
Total time:
	user time   =     114.39 seconds =       1.91 minutes
	system time =       2.24 seconds =       0.04 minutes
	total time  =         32 seconds =       0.53 minutes

  //>>>>>>>>>>>>>>>>>>>>>>>>>>>>>>>>>>>//
  //            Monomer B HF           //
  //<<<<<<<<<<<<<<<<<<<<<<<<<<<<<<<<<<<//


*** tstart() called on node54.bme.utexas.edu
*** at Mon Sep  9 17:15:40 2019

   => Loading Basis Set <=

    Name: AUG-CC-PVTZ
    Role: ORBITAL
    Keyword: BASIS
    atoms 1, 7                 entry C          line   235 file /home/xy3866/psi4conda/share/psi4/basis/aug-cc-pvtz.gbs 
    atoms 2, 5-6, 8, 10, 12-13 entry H          line    36 file /home/xy3866/psi4conda/share/psi4/basis/aug-cc-pvtz.gbs 
    atoms 3                    entry O          line   327 file /home/xy3866/psi4conda/share/psi4/basis/aug-cc-pvtz.gbs 
    atoms 4, 9, 11             entry N          line   281 file /home/xy3866/psi4conda/share/psi4/basis/aug-cc-pvtz.gbs 


         ---------------------------------------------------------
                                   SCF
               by Justin Turney, Rob Parrish, Andy Simmonett
                          and Daniel G. A. Smith
                              RHF Reference
                        4 Threads,  30517 MiB Core
         ---------------------------------------------------------

  ==> Geometry <==

    Molecular point group: c1
    Full point group: C1

    Geometry (in Angstrom), charge = 0, multiplicity = 1:

       Center              X                  Y                   Z               Mass       
    ------------   -----------------  -----------------  -----------------  -----------------
      Gh(C)          -2.102391676327     0.283441768845     0.000010194538    12.000000000000
      Gh(H)          -3.199905676327     0.349669768845    -0.000010805462     1.007825032230
      Gh(O)          -1.405413676327     1.293928768845    -0.000003805462    15.994914619570
      Gh(N)          -1.646437676327    -0.977706231155     0.000001194538    14.003074004430
      Gh(H)          -0.637875676327    -1.174708231155     0.000000194538     1.007825032230
      Gh(H)          -2.307021676327    -1.731639231155    -0.000009805462     1.007825032230
         C            2.153578823673    -0.270942531155     0.000001194538    12.000000000000
         H            3.243490823673    -0.297210531155    -0.000002805462     1.007825032230
         N            1.421672823673    -1.332601531155    -0.000000805462    14.003074004430
         H            2.021437823673    -2.148920431155    -0.000006805462     1.007825032230
         N            1.641403823673     0.973999568845    -0.000002805462    14.003074004430
         H            0.634763823673     1.123975468845    -0.000003805462     1.007825032230
         H            2.257290823673     1.761552468845    -0.000007805462     1.007825032230

  Running in c1 symmetry.

  Rotational constants: A =      0.18458  B =      0.05954  C =      0.04502 [cm^-1]
  Rotational constants: A =   5533.64306  B =   1784.87578  C =   1349.57164 [MHz]
  Nuclear repulsion =   72.220839145381404

  Charge       = 0
  Multiplicity = 1
  Electrons    = 24
  Nalpha       = 12
  Nbeta        = 12

  ==> Algorithm <==

  SCF Algorithm Type is DF.
  DIIS enabled.
  MOM disabled.
  Fractional occupation disabled.
  Guess Type is SAD.
  Energy threshold   = 1.00e-08
  Density threshold  = 1.00e-08
  Integral threshold = 0.00e+00

  ==> Primary Basis <==

  Basis Set: AUG-CC-PVTZ
    Blend: AUG-CC-PVTZ
    Number of shells: 147
    Number of basis function: 437
    Number of Cartesian functions: 505
    Spherical Harmonics?: true
    Max angular momentum: 3

   => Loading Basis Set <=

    Name: (AUG-CC-PVTZ AUX)
    Role: JKFIT
    Keyword: DF_BASIS_SCF
    atoms 1, 7                 entry C          line   162 file /home/xy3866/psi4conda/share/psi4/basis/aug-cc-pvtz-jkfit.gbs 
    atoms 2, 5-6, 8, 10, 12-13 entry H          line    70 file /home/xy3866/psi4conda/share/psi4/basis/aug-cc-pvtz-jkfit.gbs 
    atoms 3                    entry O          line   286 file /home/xy3866/psi4conda/share/psi4/basis/aug-cc-pvtz-jkfit.gbs 
    atoms 4, 9, 11             entry N          line   224 file /home/xy3866/psi4conda/share/psi4/basis/aug-cc-pvtz-jkfit.gbs 

  ==> Pre-Iterations <==

   -------------------------------------------------------
    Irrep   Nso     Nmo     Nalpha   Nbeta   Ndocc  Nsocc
   -------------------------------------------------------
     A        437     437       0       0       0       0
   -------------------------------------------------------
    Total     437     437      12      12      12       0
   -------------------------------------------------------

  ==> Integral Setup <==

  ==> DiskDFJK: Density-Fitted J/K Matrices <==

    J tasked:                  Yes
    K tasked:                  Yes
    wK tasked:                  No
    OpenMP threads:              4
    Integrals threads:           4
    Memory [MiB]:            22888
    Algorithm:                Core
    Integral Cache:           LOAD
    Schwarz Cutoff:          1E-12
    Fitting Condition:       1E-10

   => Auxiliary Basis Set <=

  Basis Set: (AUG-CC-PVTZ AUX)
    Blend: AUG-CC-PVTZ-JKFIT
    Number of shells: 278
    Number of basis function: 946
    Number of Cartesian functions: 1171
    Spherical Harmonics?: true
    Max angular momentum: 4

  Minimum eigenvalue in the overlap matrix is 2.6946616618E-05.
  Using Symmetric Orthogonalization.

  SCF Guess: Superposition of Atomic Densities via on-the-fly atomic UHF.

  ==> Iterations <==

                           Total Energy        Delta E     RMS |[F,P]|

   @DF-RHF iter SAD:  -148.39145739252882   -1.48391e+02   0.00000e+00 
   @DF-RHF iter   1:  -148.99804993108489   -6.06593e-01   1.25640e-03 DIIS
   @DF-RHF iter   2:  -149.10003632182017   -1.01986e-01   7.40075e-04 DIIS
   @DF-RHF iter   3:  -149.14180977619165   -4.17735e-02   1.03370e-04 DIIS
   @DF-RHF iter   4:  -149.14321888034294   -1.40910e-03   5.11148e-05 DIIS
   @DF-RHF iter   5:  -149.14349481450057   -2.75934e-04   9.28761e-06 DIIS
   @DF-RHF iter   6:  -149.14352307210606   -2.82576e-05   4.37899e-06 DIIS
   @DF-RHF iter   7:  -149.14352770316810   -4.63106e-06   1.76436e-06 DIIS
   @DF-RHF iter   8:  -149.14352863164223   -9.28474e-07   5.20302e-07 DIIS
   @DF-RHF iter   9:  -149.14352871602469   -8.43825e-08   1.58813e-07 DIIS
   @DF-RHF iter  10:  -149.14352872345026   -7.42557e-09   3.95258e-08 DIIS
   @DF-RHF iter  11:  -149.14352872391686   -4.66599e-10   7.55507e-09 DIIS
  Energy and wave function converged.


  ==> Post-Iterations <==

    Orbital Energies [Eh]
    ---------------------

    Doubly Occupied:                                                      

       1A    -15.580942     2A    -15.519596     3A    -11.314716  
       4A     -1.259451     5A     -1.137359     6A     -0.830840  
       7A     -0.746507     8A     -0.640069     9A     -0.616578  
      10A     -0.530115    11A     -0.419652    12A     -0.359600  

    Virtual:                                                              

      13A      0.022277    14A      0.030951    15A      0.037466  
      16A      0.051391    17A      0.056114    18A      0.070070  
      19A      0.073943    20A      0.086116    21A      0.086996  
      22A      0.098338    23A      0.100847    24A      0.115711  
      25A      0.128310    26A      0.133279    27A      0.138291  
      28A      0.138715    29A      0.144518    30A      0.153531  
      31A      0.157308    32A      0.172861    33A      0.173881  
      34A      0.187397    35A      0.202765    36A      0.202994  
      37A      0.213328    38A      0.220493    39A      0.229516  
      40A      0.239594    41A      0.240600    42A      0.254093  
      43A      0.257928    44A      0.277260    45A      0.282357  
      46A      0.303022    47A      0.304207    48A      0.307301  
      49A      0.314419    50A      0.316442    51A      0.321623  
      52A      0.334645    53A      0.346225    54A      0.355977  
      55A      0.357380    56A      0.367224    57A      0.371355  
      58A      0.376276    59A      0.387975    60A      0.388848  
      61A      0.393967    62A      0.396445    63A      0.405570  
      64A      0.414340    65A      0.423254    66A      0.425931  
      67A      0.441738    68A      0.446652    69A      0.451133  
      70A      0.464184    71A      0.469310    72A      0.486245  
      73A      0.499257    74A      0.506949    75A      0.509810  
      76A      0.520839    77A      0.530720    78A      0.536075  
      79A      0.552770    80A      0.559292    81A      0.559837  
      82A      0.583819    83A      0.593623    84A      0.627204  
      85A      0.639992    86A      0.644635    87A      0.651081  
      88A      0.659368    89A      0.660065    90A      0.663981  
      91A      0.677530    92A      0.685265    93A      0.693994  
      94A      0.709598    95A      0.726458    96A      0.738761  
      97A      0.744385    98A      0.763834    99A      0.764910  
     100A      0.770563   101A      0.773647   102A      0.801759  
     103A      0.816689   104A      0.821869   105A      0.837403  
     106A      0.840192   107A      0.843990   108A      0.876759  
     109A      0.886744   110A      0.889338   111A      0.896497  
     112A      0.902730   113A      0.909776   114A      0.919941  
     115A      0.924107   116A      0.929978   117A      0.938045  
     118A      0.946649   119A      0.954716   120A      0.968908  
     121A      0.976393   122A      0.989450   123A      0.993802  
     124A      1.007683   125A      1.016968   126A      1.023235  
     127A      1.023572   128A      1.033287   129A      1.045752  
     130A      1.060492   131A      1.060526   132A      1.066922  
     133A      1.075484   134A      1.077471   135A      1.090666  
     136A      1.098496   137A      1.108299   138A      1.120446  
     139A      1.133098   140A      1.148746   141A      1.151183  
     142A      1.167909   143A      1.175844   144A      1.193848  
     145A      1.209257   146A      1.217809   147A      1.223776  
     148A      1.232276   149A      1.249130   150A      1.251128  
     151A      1.263490   152A      1.270736   153A      1.300569  
     154A      1.311240   155A      1.327161   156A      1.328113  
     157A      1.351872   158A      1.358968   159A      1.371700  
     160A      1.381080   161A      1.388454   162A      1.398008  
     163A      1.402153   164A      1.408830   165A      1.430973  
     166A      1.462846   167A      1.463423   168A      1.471161  
     169A      1.478295   170A      1.480104   171A      1.500327  
     172A      1.507702   173A      1.516720   174A      1.555407  
     175A      1.561083   176A      1.581785   177A      1.590963  
     178A      1.596539   179A      1.611739   180A      1.636975  
     181A      1.640428   182A      1.657172   183A      1.663852  
     184A      1.681415   185A      1.700490   186A      1.713483  
     187A      1.715863   188A      1.726675   189A      1.737287  
     190A      1.765834   191A      1.777022   192A      1.780700  
     193A      1.782855   194A      1.814305   195A      1.837281  
     196A      1.867002   197A      1.875880   198A      1.879574  
     199A      1.898800   200A      1.917579   201A      1.937646  
     202A      1.944809   203A      1.979207   204A      1.988075  
     205A      1.998654   206A      2.022278   207A      2.025090  
     208A      2.049548   209A      2.077518   210A      2.086404  
     211A      2.109315   212A      2.125942   213A      2.129049  
     214A      2.157171   215A      2.176243   216A      2.210629  
     217A      2.211961   218A      2.250056   219A      2.259835  
     220A      2.276468   221A      2.322173   222A      2.333058  
     223A      2.336786   224A      2.372269   225A      2.380647  
     226A      2.390600   227A      2.401544   228A      2.437784  
     229A      2.439030   230A      2.454624   231A      2.486922  
     232A      2.517884   233A      2.518892   234A      2.527566  
     235A      2.551091   236A      2.565508   237A      2.604264  
     238A      2.606941   239A      2.639221   240A      2.653142  
     241A      2.678138   242A      2.684672   243A      2.699572  
     244A      2.707387   245A      2.738112   246A      2.745158  
     247A      2.758942   248A      2.777991   249A      2.795770  
     250A      2.837063   251A      2.858024   252A      2.872270  
     253A      2.909560   254A      2.945675   255A      2.977858  
     256A      2.987113   257A      2.993098   258A      3.003502  
     259A      3.027605   260A      3.072494   261A      3.108664  
     262A      3.138494   263A      3.187910   264A      3.209105  
     265A      3.247507   266A      3.265679   267A      3.312368  
     268A      3.356616   269A      3.410745   270A      3.415382  
     271A      3.446899   272A      3.456123   273A      3.489997  
     274A      3.552111   275A      3.572393   276A      3.603511  
     277A      3.687317   278A      3.691497   279A      3.763108  
     280A      3.775898   281A      3.813734   282A      3.818223  
     283A      3.852045   284A      3.859652   285A      3.932524  
     286A      3.963387   287A      4.005615   288A      4.043825  
     289A      4.068556   290A      4.073579   291A      4.090529  
     292A      4.104461   293A      4.118937   294A      4.129526  
     295A      4.145526   296A      4.157401   297A      4.191195  
     298A      4.224412   299A      4.255909   300A      4.275627  
     301A      4.316456   302A      4.325713   303A      4.370034  
     304A      4.382491   305A      4.422169   306A      4.448248  
     307A      4.457392   308A      4.510311   309A      4.547958  
     310A      4.550308   311A      4.562164   312A      4.573428  
     313A      4.642097   314A      4.644098   315A      4.655876  
     316A      4.682329   317A      4.723675   318A      4.734735  
     319A      4.749720   320A      4.762650   321A      4.793428  
     322A      4.799505   323A      4.855919   324A      4.866369  
     325A      4.877304   326A      4.892697   327A      4.904258  
     328A      4.914880   329A      4.940747   330A      4.974879  
     331A      4.985657   332A      5.000514   333A      5.006339  
     334A      5.011112   335A      5.055396   336A      5.062246  
     337A      5.106331   338A      5.134446   339A      5.154899  
     340A      5.191231   341A      5.206755   342A      5.226887  
     343A      5.255227   344A      5.282024   345A      5.295676  
     346A      5.318875   347A      5.330615   348A      5.374158  
     349A      5.378052   350A      5.386571   351A      5.410391  
     352A      5.460133   353A      5.461485   354A      5.479259  
     355A      5.512280   356A      5.534787   357A      5.550810  
     358A      5.594334   359A      5.640218   360A      5.647659  
     361A      5.672131   362A      5.712606   363A      5.736838  
     364A      5.758136   365A      5.774226   366A      5.824833  
     367A      5.831945   368A      5.893195   369A      5.910701  
     370A      5.930483   371A      5.958463   372A      5.995953  
     373A      6.074784   374A      6.113225   375A      6.142537  
     376A      6.150250   377A      6.178445   378A      6.205519  
     379A      6.223941   380A      6.266888   381A      6.365813  
     382A      6.382264   383A      6.537017   384A      6.574796  
     385A      6.604244   386A      6.608248   387A      6.675444  
     388A      6.681548   389A      6.716231   390A      6.718112  
     391A      6.779259   392A      6.822863   393A      6.855131  
     394A      6.924921   395A      7.061179   396A      7.086182  
     397A      7.342187   398A      7.420325   399A      7.494491  
     400A      7.547794   401A      7.643251   402A      7.689946  
     403A      7.690614   404A      7.714166   405A      7.729636  
     406A      7.748987   407A      7.838249   408A      7.930763  
     409A      7.939068   410A      8.057384   411A      8.157670  
     412A      8.174232   413A      8.416128   414A      8.669461  
     415A      8.739482   416A      9.144299   417A      9.327161  
     418A      9.503128   419A      9.807144   420A      9.874019  
     421A     10.083749   422A     10.116169   423A     10.432981  
     424A     10.636810   425A     11.204314   426A     11.733695  
     427A     11.873256   428A     12.422680   429A     12.624285  
     430A     12.901616   431A     14.000845   432A     17.223339  
     433A     17.478814   434A     19.003839   435A     51.376232  
     436A     61.474538   437A     66.803522  

    Final Occupation by Irrep:
              A 
    DOCC [    12 ]

  @DF-RHF Final Energy:  -149.14352872391686

   => Energetics <=

    Nuclear Repulsion Energy =             72.2208391453814045
    One-Electron Energy =                -344.8178786243837521
    Two-Electron Energy =                 123.4535107550854605
    Total Energy =                       -149.1435287239168588

Computation Completed


Properties will be evaluated at   0.000000,   0.000000,   0.000000 [a0]

Properties computed using the SCF density matrix

  Nuclear Dipole Moment: [e a0]
     X:    80.3511      Y:    -6.9853      Z:    -0.0001

  Electronic Dipole Moment: [e a0]
     X:   -79.5078      Y:     7.9558      Z:     0.0001

  Dipole Moment: [e a0]
     X:     0.8433      Y:     0.9705      Z:    -0.0000     Total:     1.2857

  Dipole Moment: [D]
     X:     2.1435      Y:     2.4667      Z:    -0.0000     Total:     3.2679


*** tstop() called on node54.bme.utexas.edu at Mon Sep  9 17:15:52 2019
Module time:
	user time   =      41.02 seconds =       0.68 minutes
	system time =       0.78 seconds =       0.01 minutes
	total time  =         12 seconds =       0.20 minutes
Total time:
	user time   =     155.43 seconds =       2.59 minutes
	system time =       3.02 seconds =       0.05 minutes
	total time  =         44 seconds =       0.73 minutes
  Constructing Basis Sets for SAPT...

   => Loading Basis Set <=

    Name: (AUG-CC-PVTZ AUX)
    Role: RIFIT
    Keyword: DF_BASIS_SAPT
    atoms 1, 7                 entry C          line   148 file /home/xy3866/psi4conda/share/psi4/basis/aug-cc-pvtz-ri.gbs 
    atoms 2, 5-6, 8, 10, 12-13 entry H          line    30 file /home/xy3866/psi4conda/share/psi4/basis/aug-cc-pvtz-ri.gbs 
    atoms 3                    entry O          line   264 file /home/xy3866/psi4conda/share/psi4/basis/aug-cc-pvtz-ri.gbs 
    atoms 4, 9, 11             entry N          line   206 file /home/xy3866/psi4conda/share/psi4/basis/aug-cc-pvtz-ri.gbs 


  //>>>>>>>>>>>>>>>>>>>>>>>>>>>>>>>>>>>//
  //               SAPT2+              //
  //<<<<<<<<<<<<<<<<<<<<<<<<<<<<<<<<<<<//


*** tstart() called on node54.bme.utexas.edu
*** at Mon Sep  9 17:15:52 2019

        SAPT2+  
    Ed Hohenstein
     6 June 2009

      Orbital Information
  --------------------------
    NSO        =       437
    NMO        =       437
    NRI        =       958
    NOCC A     =        12
    NOCC B     =        12
    FOCC A     =         3
    FOCC B     =         3
    NVIR A     =       425
    NVIR B     =       425

    Estimated memory usage: 2008.5 MB

    Natural Orbital Cutoff:   1.000E-06
    Disp(T3) Truncation:            Yes
    CCD (vv|vv) Truncation:         Yes
    MBPT T2 Truncation:             Yes

    Monomer A: 242 virtual orbitals dropped
    Monomer B: 226 virtual orbitals dropped

    Elst10,r            =    -0.032004472174 [Eh]
    Exch10 (S^2)        =     0.023681848270 [Eh]
    Exch10              =     0.023909178648 [Eh]
    Ind20,r (A<-B)      =    -0.005204015353 [Eh]
    Ind20,r (B<-A)      =    -0.007693900355 [Eh]
    Ind20,r             =    -0.012897915709 [Eh]
    Exch-Ind20,r (A<-B) =     0.002174926928 [Eh]
    Exch-Ind20,r (B<-A) =     0.004083569679 [Eh]
    Exch-Ind20,r        =     0.006258496606 [Eh]
    Disp20              =    -0.010572433031 [Eh]
    Disp20 (NO)         =    -0.009226915191 [Eh]
    Exch-Disp20         =     0.001849319827 [Eh]
    Elst12,r            =     0.000789473741 [Eh]
    Exch11              =     0.000186900886 [Eh]
    Exch12              =     0.003235408086 [Eh]
    Ind22               =    -0.001492080718 [Eh]
    Disp21              =     0.000634910898 [Eh]
    Disp22 (SDQ)        =     0.000012973407 [Eh]

    (i =   1 of   9)         27 seconds
    (i =   2 of   9)         54 seconds
    (i =   3 of   9)         82 seconds
    (i =   4 of   9)        109 seconds
    (i =   5 of   9)        136 seconds
    (i =   6 of   9)        163 seconds
    (i =   7 of   9)        190 seconds
    (i =   8 of   9)        217 seconds
    (i =   9 of   9)        244 seconds

    Disp220 (T)         =    -0.000899466833 [Eh]

    (i =   1 of   9)         30 seconds
    (i =   2 of   9)         60 seconds
    (i =   3 of   9)         90 seconds
    (i =   4 of   9)        120 seconds
    (i =   5 of   9)        150 seconds
    (i =   6 of   9)        180 seconds
    (i =   7 of   9)        208 seconds
    (i =   8 of   9)        234 seconds
    (i =   9 of   9)        261 seconds

    Disp202 (T)         =    -0.000829721920 [Eh]

    Disp22 (T)          =    -0.001729188754 [Eh]

    Est. Disp220 (T)    =    -0.001030631870 [Eh]
    Est. Disp202 (T)    =    -0.000950716383 [Eh]

    Est. Disp22 (T)     =    -0.001981348253 [Eh]

    SAPT Results 
  --------------------------------------------------------------------------------------------------------
    Electrostatics                -31.21499843 [mEh]     -19.58770724 [kcal/mol]     -81.95496709 [kJ/mol]
      Elst10,r                    -32.00447217 [mEh]     -20.08310949 [kcal/mol]     -84.02773012 [kJ/mol]
      Elst12,r                      0.78947374 [mEh]       0.49540225 [kcal/mol]       2.07276302 [kJ/mol]

    Exchange                       27.33148762 [mEh]      17.15076741 [kcal/mol]      71.75881086 [kJ/mol]
      Exch10                       23.90917865 [mEh]      15.00323611 [kcal/mol]      62.77353989 [kJ/mol]
      Exch10(S^2)                  23.68184827 [mEh]      14.86058415 [kcal/mol]      62.17668407 [kJ/mol]
      Exch11(S^2)                   0.18690089 [mEh]       0.11728208 [kcal/mol]       0.49070821 [kJ/mol]
      Exch12(S^2)                   3.23540809 [mEh]       2.03024923 [kcal/mol]       8.49456276 [kJ/mol]

    Induction                     -11.73684924 [mEh]      -7.36498409 [kcal/mol]     -30.81509342 [kJ/mol]
      Ind20,r                     -12.89791571 [mEh]      -8.09356430 [kcal/mol]     -33.86347303 [kJ/mol]
      Ind22                        -1.49208072 [mEh]      -0.93629479 [kcal/mol]      -3.91745739 [kJ/mol]
      Exch-Ind20,r                  6.25849661 [mEh]       3.92726591 [kcal/mol]      16.43168058 [kJ/mol]
      Exch-Ind22                    0.72400707 [mEh]       0.45432129 [kcal/mol]       1.90088029 [kJ/mol]
      delta HF,r (2)               -4.32935648 [mEh]      -2.71671221 [kcal/mol]     -11.36672388 [kJ/mol]

    Dispersion                    -10.05657715 [mEh]      -6.31059744 [kcal/mol]     -26.40353968 [kJ/mol]
      Disp20                      -10.57243303 [mEh]      -6.63430189 [kcal/mol]     -27.75791910 [kJ/mol]
      Disp21                        0.63491090 [mEh]       0.39841260 [kcal/mol]       1.66695833 [kJ/mol]
      Disp22 (SDQ)                  0.01297341 [mEh]       0.00814094 [kcal/mol]       0.03406167 [kJ/mol]
      Disp22 (T)                   -1.72918875 [mEh]      -1.08508232 [kcal/mol]      -4.53998445 [kJ/mol]
      Est. Disp22 (T)              -1.98134825 [mEh]      -1.24331480 [kcal/mol]      -5.20202912 [kJ/mol]
      Exch-Disp20                   1.84931983 [mEh]       1.16046571 [kcal/mol]       4.85538854 [kJ/mol]

  Total HF                        -19.06406911 [mEh]     -11.96288397 [kcal/mol]     -50.05270655 [kJ/mol]
  Total SAPT0                     -27.78718231 [mEh]     -17.43672015 [kcal/mol]     -72.95523711 [kJ/mol]
  Total SAPT2                     -24.34347325 [mEh]     -15.27576009 [kcal/mol]     -63.91378021 [kJ/mol]
  Total SAPT2+                    -25.67693720 [mEh]     -16.11252135 [kcal/mol]     -67.41478933 [kJ/mol]

  Special recipe for scaled SAPT0 (see Manual):
    Electrostatics sSAPT0         -32.00447217 [mEh]     -20.08310949 [kcal/mol]     -84.02773012 [kJ/mol]
    Exchange sSAPT0                23.90917865 [mEh]      15.00323611 [kcal/mol]      62.77353989 [kJ/mol]
    Induction sSAPT0              -10.78680741 [mEh]      -6.76882384 [kcal/mol]     -28.32075896 [kJ/mol]
    Dispersion sSAPT0              -8.66934353 [mEh]      -5.44009519 [kcal/mol]     -22.76135829 [kJ/mol]
  Total sSAPT0                    -27.55144446 [mEh]     -17.28879242 [kcal/mol]     -72.33630747 [kJ/mol]
  --------------------------------------------------------------------------------------------------------

*** tstop() called on node54.bme.utexas.edu at Mon Sep  9 17:28:06 2019
Module time:
	user time   =    2816.73 seconds =      46.95 minutes
	system time =      51.32 seconds =       0.86 minutes
	total time  =        734 seconds =      12.23 minutes
Total time:
	user time   =    2972.48 seconds =      49.54 minutes
	system time =      54.34 seconds =       0.91 minutes
	total time  =        778 seconds =      12.97 minutes

    Psi4 stopped on: Monday, 09 September 2019 05:28PM
    Psi4 wall time for execution: 0:12:57.92

*** Psi4 exiting successfully. Buy a developer a beer!
