
    -----------------------------------------------------------------------
          Psi4: An Open-Source Ab Initio Electronic Structure Package
                               Psi4 1.3.2 release

                         Git: Rev {HEAD} ecbda83 


    R. M. Parrish, L. A. Burns, D. G. A. Smith, A. C. Simmonett,
    A. E. DePrince III, E. G. Hohenstein, U. Bozkaya, A. Yu. Sokolov,
    R. Di Remigio, R. M. Richard, J. F. Gonthier, A. M. James,
    H. R. McAlexander, A. Kumar, M. Saitow, X. Wang, B. P. Pritchard,
    P. Verma, H. F. Schaefer III, K. Patkowski, R. A. King, E. F. Valeev,
    F. A. Evangelista, J. M. Turney, T. D. Crawford, and C. D. Sherrill,
    J. Chem. Theory Comput. 13(7) pp 3185--3197 (2017).
    (doi: 10.1021/acs.jctc.7b00174)


                         Additional Contributions by
    P. Kraus, H. Kruse, M. H. Lechner, M. C. Schieber, R. A. Shaw,
    A. Alenaizan, R. Galvelis, Z. L. Glick, S. Lehtola, and J. P. Misiewicz

    -----------------------------------------------------------------------


    Psi4 started on: Monday, 09 September 2019 04:18PM

    Process ID: 48234
    Host:       node54.bme.utexas.edu
    PSIDATADIR: /home/xy3866/psi4conda/share/psi4
    Memory:     500.0 MiB
    Threads:    4
    
  ==> Input File <==

--------------------------------------------------------------------------
#psi4
#
memory 32 gb

molecule  {
0 1
  C       -2.0482690     0.2828850     0.0000130
  H       -3.1457830     0.3491130    -0.0000080
  O       -1.3512910     1.2933720    -0.0000010
  N       -1.5923150    -0.9782630     0.0000040
  H       -0.5837530    -1.1752650     0.0000030
  H       -2.2528990    -1.7321960    -0.0000070
--
0 1
  C        1.4797339    -0.1911630     0.0000041
  H        2.5696459    -0.2174310     0.0000001
  N        0.7478279    -1.2528220     0.0000021
  H        1.3475929    -2.0691410    -0.0000039
  N        0.9675589     1.0537790     0.0000001
  H       -0.0390811     1.2037550    -0.0000009
  H        1.5834459     1.8413320    -0.0000049
units angstrom
no_reorient  #important for SAPT in psi4, default
symmetry c1  #important for SAPT in psi4, default
}

set {
basis aug-cc-pVTZ
scf_type DF
freeze_core True
}
energy('sapt2+')
--------------------------------------------------------------------------

  Memory set to  29.802 GiB by Python driver.

  //>>>>>>>>>>>>>>>>>>>>>>>>>>>>>>>>>>>//
  //              Dimer HF             //
  //<<<<<<<<<<<<<<<<<<<<<<<<<<<<<<<<<<<//


*** tstart() called on node54.bme.utexas.edu
*** at Mon Sep  9 16:18:32 2019

   => Loading Basis Set <=

    Name: AUG-CC-PVTZ
    Role: ORBITAL
    Keyword: BASIS
    atoms 1, 7                 entry C          line   235 file /home/xy3866/psi4conda/share/psi4/basis/aug-cc-pvtz.gbs 
    atoms 2, 5-6, 8, 10, 12-13 entry H          line    36 file /home/xy3866/psi4conda/share/psi4/basis/aug-cc-pvtz.gbs 
    atoms 3                    entry O          line   327 file /home/xy3866/psi4conda/share/psi4/basis/aug-cc-pvtz.gbs 
    atoms 4, 9, 11             entry N          line   281 file /home/xy3866/psi4conda/share/psi4/basis/aug-cc-pvtz.gbs 


         ---------------------------------------------------------
                                   SCF
               by Justin Turney, Rob Parrish, Andy Simmonett
                          and Daniel G. A. Smith
                              RHF Reference
                        4 Threads,  30517 MiB Core
         ---------------------------------------------------------

  ==> Geometry <==

    Molecular point group: c1
    Full point group: C1

    Geometry (in Angstrom), charge = 0, multiplicity = 1:

       Center              X                  Y                   Z               Mass       
    ------------   -----------------  -----------------  -----------------  -----------------
         C           -1.742429548315     0.243717455243     0.000010145091    12.000000000000
         H           -2.839943548315     0.309945455243    -0.000010854909     1.007825032230
         O           -1.045451548315     1.254204455243    -0.000003854909    15.994914619570
         N           -1.286475548315    -1.017430544757     0.000001145091    14.003074004430
         H           -0.277913548315    -1.214432544757     0.000000145091     1.007825032230
         H           -1.947059548315    -1.771363544757    -0.000009854909     1.007825032230
         C            1.785573351685    -0.230330544757     0.000001245091    12.000000000000
         H            2.875485351685    -0.256598544757    -0.000002754909     1.007825032230
         N            1.053667351685    -1.291989544757    -0.000000754909    14.003074004430
         H            1.653432351685    -2.108308544757    -0.000006754909     1.007825032230
         N            1.273398351685     1.014611455243    -0.000002754909    14.003074004430
         H            0.266758351685     1.164587455243    -0.000003754909     1.007825032230
         H            1.889285351685     1.802164455243    -0.000007754909     1.007825032230

  Running in c1 symmetry.

  Rotational constants: A =      0.18462  B =      0.09273  C =      0.06172 [cm^-1]
  Rotational constants: A =   5534.69224  B =   2779.82783  C =   1850.43651 [MHz]
  Nuclear repulsion =  245.600726818179197

  Charge       = 0
  Multiplicity = 1
  Electrons    = 48
  Nalpha       = 24
  Nbeta        = 24

  ==> Algorithm <==

  SCF Algorithm Type is DF.
  DIIS enabled.
  MOM disabled.
  Fractional occupation disabled.
  Guess Type is SAD.
  Energy threshold   = 1.00e-08
  Density threshold  = 1.00e-08
  Integral threshold = 0.00e+00

  ==> Primary Basis <==

  Basis Set: AUG-CC-PVTZ
    Blend: AUG-CC-PVTZ
    Number of shells: 147
    Number of basis function: 437
    Number of Cartesian functions: 505
    Spherical Harmonics?: true
    Max angular momentum: 3

   => Loading Basis Set <=

    Name: (AUG-CC-PVTZ AUX)
    Role: JKFIT
    Keyword: DF_BASIS_SCF
    atoms 1, 7                 entry C          line   162 file /home/xy3866/psi4conda/share/psi4/basis/aug-cc-pvtz-jkfit.gbs 
    atoms 2, 5-6, 8, 10, 12-13 entry H          line    70 file /home/xy3866/psi4conda/share/psi4/basis/aug-cc-pvtz-jkfit.gbs 
    atoms 3                    entry O          line   286 file /home/xy3866/psi4conda/share/psi4/basis/aug-cc-pvtz-jkfit.gbs 
    atoms 4, 9, 11             entry N          line   224 file /home/xy3866/psi4conda/share/psi4/basis/aug-cc-pvtz-jkfit.gbs 

  ==> Pre-Iterations <==

   -------------------------------------------------------
    Irrep   Nso     Nmo     Nalpha   Nbeta   Ndocc  Nsocc
   -------------------------------------------------------
     A        437     437       0       0       0       0
   -------------------------------------------------------
    Total     437     437      24      24      24       0
   -------------------------------------------------------

  ==> Integral Setup <==

  ==> DiskDFJK: Density-Fitted J/K Matrices <==

    J tasked:                  Yes
    K tasked:                  Yes
    wK tasked:                  No
    OpenMP threads:              4
    Integrals threads:           4
    Memory [MiB]:            22888
    Algorithm:                Core
    Integral Cache:           SAVE
    Schwarz Cutoff:          1E-12
    Fitting Condition:       1E-10

   => Auxiliary Basis Set <=

  Basis Set: (AUG-CC-PVTZ AUX)
    Blend: AUG-CC-PVTZ-JKFIT
    Number of shells: 278
    Number of basis function: 946
    Number of Cartesian functions: 1171
    Spherical Harmonics?: true
    Max angular momentum: 4

  Minimum eigenvalue in the overlap matrix is 1.7581373977E-05.
  Using Symmetric Orthogonalization.

  SCF Guess: Superposition of Atomic Densities via on-the-fly atomic UHF.

  ==> Iterations <==

                           Total Energy        Delta E     RMS |[F,P]|

   @DF-RHF iter SAD:  -317.37006160235177   -3.17370e+02   0.00000e+00 
   @DF-RHF iter   1:  -317.86347142014688   -4.93410e-01   1.71702e-03 DIIS
   @DF-RHF iter   2:  -318.03887510743436   -1.75404e-01   9.83170e-04 DIIS
   @DF-RHF iter   3:  -318.10717266905027   -6.82976e-02   1.31727e-04 DIIS
   @DF-RHF iter   4:  -318.10931551131324   -2.14284e-03   4.98316e-05 DIIS
   @DF-RHF iter   5:  -318.10956316994827   -2.47659e-04   1.32383e-05 DIIS
   @DF-RHF iter   6:  -318.10959285538246   -2.96854e-05   5.52627e-06 DIIS
   @DF-RHF iter   7:  -318.10959857020191   -5.71482e-06   1.88029e-06 DIIS
   @DF-RHF iter   8:  -318.10959979397649   -1.22377e-06   8.37829e-07 DIIS
   @DF-RHF iter   9:  -318.10960000366759   -2.09691e-07   3.04609e-07 DIIS
   @DF-RHF iter  10:  -318.10960002887725   -2.52097e-08   1.14803e-07 DIIS
   @DF-RHF iter  11:  -318.10960003179770   -2.92044e-09   4.23369e-08 DIIS
   @DF-RHF iter  12:  -318.10960003230252   -5.04826e-10   1.04790e-08 DIIS
   @DF-RHF iter  13:  -318.10960003232867   -2.61480e-11   3.01034e-09 DIIS
  Energy and wave function converged.


  ==> Post-Iterations <==

    Orbital Energies [Eh]
    ---------------------

    Doubly Occupied:                                                      

       1A    -20.520775     2A    -15.535645     3A    -15.532533  
       4A    -15.518756     5A    -11.346394     6A    -11.320469  
       7A     -1.393188     8A     -1.253801     9A     -1.197659  
      10A     -1.136129    11A     -0.874127    12A     -0.799808  
      13A     -0.749407    14A     -0.744009    15A     -0.710008  
      16A     -0.624512    17A     -0.611431    18A     -0.576336  
      19A     -0.568644    20A     -0.517521    21A     -0.453823  
      22A     -0.404645    23A     -0.392638    24A     -0.352596  

    Virtual:                                                              

      25A      0.026943    26A      0.033141    27A      0.039338  
      28A      0.051498    29A      0.056085    30A      0.072854  
      31A      0.078088    32A      0.085860    33A      0.090650  
      34A      0.108479    35A      0.123466    36A      0.127407  
      37A      0.134820    38A      0.135485    39A      0.141909  
      40A      0.147210    41A      0.150595    42A      0.157991  
      43A      0.166016    44A      0.174344    45A      0.178269  
      46A      0.199152    47A      0.199264    48A      0.207077  
      49A      0.208430    50A      0.215770    51A      0.252964  
      52A      0.253434    53A      0.256267    54A      0.271755  
      55A      0.278432    56A      0.282882    57A      0.293727  
      58A      0.305627    59A      0.308788    60A      0.319478  
      61A      0.329741    62A      0.330281    63A      0.335249  
      64A      0.338687    65A      0.344745    66A      0.356731  
      67A      0.365727    68A      0.368308    69A      0.374022  
      70A      0.383504    71A      0.390233    72A      0.394203  
      73A      0.407696    74A      0.415285    75A      0.427577  
      76A      0.434942    77A      0.441446    78A      0.444033  
      79A      0.451587    80A      0.465839    81A      0.465885  
      82A      0.484239    83A      0.495117    84A      0.508619  
      85A      0.510010    86A      0.531945    87A      0.537959  
      88A      0.550676    89A      0.560409    90A      0.564898  
      91A      0.574283    92A      0.581433    93A      0.585345  
      94A      0.589987    95A      0.597604    96A      0.615310  
      97A      0.642626    98A      0.649092    99A      0.656911  
     100A      0.673595   101A      0.681106   102A      0.684299  
     103A      0.690608   104A      0.699606   105A      0.707592  
     106A      0.713869   107A      0.718652   108A      0.744881  
     109A      0.749790   110A      0.758132   111A      0.770658  
     112A      0.786941   113A      0.794856   114A      0.804011  
     115A      0.808457   116A      0.821428   117A      0.832580  
     118A      0.860301   119A      0.861970   120A      0.876216  
     121A      0.885152   122A      0.889011   123A      0.889806  
     124A      0.910974   125A      0.917101   126A      0.926106  
     127A      0.946280   128A      0.949026   129A      0.956749  
     130A      0.963020   131A      0.963847   132A      0.972361  
     133A      0.978904   134A      0.995412   135A      1.005805  
     136A      1.006907   137A      1.023678   138A      1.041800  
     139A      1.042191   140A      1.061494   141A      1.061676  
     142A      1.072469   143A      1.075731   144A      1.081537  
     145A      1.086766   146A      1.116439   147A      1.119338  
     148A      1.123465   149A      1.155083   150A      1.164826  
     151A      1.175934   152A      1.179148   153A      1.203593  
     154A      1.205594   155A      1.214449   156A      1.217769  
     157A      1.230795   158A      1.244826   159A      1.247527  
     160A      1.259295   161A      1.267732   162A      1.269223  
     163A      1.283126   164A      1.291726   165A      1.319902  
     166A      1.323010   167A      1.337479   168A      1.345136  
     169A      1.365110   170A      1.381245   171A      1.389090  
     172A      1.393761   173A      1.398903   174A      1.409974  
     175A      1.429285   176A      1.438094   177A      1.445147  
     178A      1.458638   179A      1.473483   180A      1.477032  
     181A      1.497914   182A      1.505547   183A      1.510333  
     184A      1.522095   185A      1.537326   186A      1.544775  
     187A      1.577743   188A      1.577752   189A      1.588130  
     190A      1.593877   191A      1.611994   192A      1.626170  
     193A      1.627403   194A      1.660390   195A      1.664207  
     196A      1.678390   197A      1.678476   198A      1.711003  
     199A      1.715263   200A      1.747855   201A      1.754940  
     202A      1.767010   203A      1.805988   204A      1.815961  
     205A      1.820125   206A      1.878440   207A      1.881780  
     208A      1.893019   209A      1.940104   210A      1.961994  
     211A      1.963060   212A      1.991172   213A      1.999944  
     214A      2.008120   215A      2.030840   216A      2.056883  
     217A      2.065515   218A      2.087246   219A      2.105631  
     220A      2.132180   221A      2.140426   222A      2.147645  
     223A      2.182932   224A      2.202847   225A      2.203637  
     226A      2.207454   227A      2.249672   228A      2.265014  
     229A      2.270923   230A      2.310022   231A      2.341805  
     232A      2.351650   233A      2.382633   234A      2.389279  
     235A      2.402543   236A      2.418449   237A      2.440255  
     238A      2.451886   239A      2.457958   240A      2.478514  
     241A      2.499921   242A      2.502990   243A      2.519715  
     244A      2.547183   245A      2.564988   246A      2.582659  
     247A      2.584443   248A      2.604972   249A      2.615264  
     250A      2.620834   251A      2.637177   252A      2.658972  
     253A      2.666340   254A      2.681933   255A      2.720877  
     256A      2.754139   257A      2.755880   258A      2.762053  
     259A      2.796640   260A      2.836345   261A      2.848374  
     262A      2.866645   263A      2.879620   264A      2.884186  
     265A      2.894826   266A      2.921459   267A      2.956200  
     268A      3.064565   269A      3.119004   270A      3.119821  
     271A      3.150699   272A      3.168321   273A      3.210845  
     274A      3.253734   275A      3.256688   276A      3.265479  
     277A      3.309969   278A      3.398746   279A      3.440410  
     280A      3.455530   281A      3.478435   282A      3.504041  
     283A      3.532410   284A      3.559015   285A      3.632598  
     286A      3.633951   287A      3.674353   288A      3.678257  
     289A      3.701736   290A      3.760113   291A      3.763774  
     292A      3.802042   293A      3.807393   294A      3.855663  
     295A      3.871774   296A      3.921474   297A      3.929681  
     298A      3.949159   299A      3.973278   300A      4.023286  
     301A      4.088937   302A      4.094002   303A      4.130262  
     304A      4.131220   305A      4.136269   306A      4.184355  
     307A      4.192281   308A      4.204362   309A      4.245264  
     310A      4.246101   311A      4.272416   312A      4.274288  
     313A      4.283085   314A      4.305830   315A      4.310862  
     316A      4.332534   317A      4.377024   318A      4.385611  
     319A      4.400906   320A      4.419346   321A      4.423342  
     322A      4.436637   323A      4.438672   324A      4.460644  
     325A      4.499613   326A      4.509384   327A      4.517224  
     328A      4.547897   329A      4.575267   330A      4.608840  
     331A      4.627557   332A      4.632394   333A      4.683661  
     334A      4.743753   335A      4.744378   336A      4.779015  
     337A      4.796579   338A      4.808904   339A      4.820951  
     340A      4.825835   341A      4.839328   342A      4.869558  
     343A      4.893681   344A      4.896713   345A      4.921892  
     346A      4.952158   347A      4.971313   348A      4.984590  
     349A      5.002339   350A      5.033557   351A      5.073977  
     352A      5.076725   353A      5.111453   354A      5.138296  
     355A      5.157359   356A      5.183513   357A      5.219250  
     358A      5.234894   359A      5.243788   360A      5.248084  
     361A      5.289478   362A      5.295813   363A      5.318356  
     364A      5.353554   365A      5.399280   366A      5.441114  
     367A      5.488010   368A      5.501121   369A      5.522061  
     370A      5.577620   371A      5.597423   372A      5.607864  
     373A      5.647363   374A      5.652044   375A      5.660435  
     376A      5.671750   377A      5.687344   378A      5.719705  
     379A      5.739748   380A      5.794095   381A      5.840566  
     382A      5.871990   383A      5.872543   384A      5.891686  
     385A      5.909153   386A      5.935178   387A      5.946244  
     388A      6.011610   389A      6.036288   390A      6.083313  
     391A      6.125227   392A      6.130345   393A      6.158123  
     394A      6.196269   395A      6.242618   396A      6.290976  
     397A      6.358106   398A      6.379728   399A      6.412536  
     400A      6.426978   401A      6.475172   402A      6.561509  
     403A      6.583802   404A      6.632679   405A      6.673845  
     406A      6.738732   407A      6.768138   408A      6.856876  
     409A      6.929504   410A      6.938475   411A      6.983841  
     412A      7.042100   413A      7.097377   414A      7.166117  
     415A      7.238172   416A      7.383018   417A      7.445262  
     418A      7.456742   419A      7.499997   420A      7.571256  
     421A      7.597765   422A      7.618497   423A      7.726261  
     424A      7.799774   425A      7.804352   426A      7.819674  
     427A      8.047333   428A      8.219016   429A      8.395875  
     430A      8.530858   431A      8.904580   432A     16.193271  
     433A     17.297279   434A     18.228868   435A     18.577938  
     436A     19.634143   437A     19.922101  

    Final Occupation by Irrep:
              A 
    DOCC [    24 ]

  @DF-RHF Final Energy:  -318.10960003232867

   => Energetics <=

    Nuclear Repulsion Energy =            245.6007268181791972
    One-Electron Energy =                -921.1509430047553906
    Two-Electron Energy =                 357.4406161542475502
    Total Energy =                       -318.1096000323286717

Computation Completed


Properties will be evaluated at   0.000000,   0.000000,   0.000000 [a0]

Properties computed using the SCF density matrix

  Nuclear Dipole Moment: [e a0]
     X:     1.5107      Y:    -1.9345      Z:    -0.0000

  Electronic Dipole Moment: [e a0]
     X:    -1.1133      Y:     1.2586      Z:     0.0000

  Dipole Moment: [e a0]
     X:     0.3974      Y:    -0.6759      Z:    -0.0000     Total:     0.7841

  Dipole Moment: [D]
     X:     1.0100      Y:    -1.7181      Z:    -0.0000     Total:     1.9930


*** tstop() called on node54.bme.utexas.edu at Mon Sep  9 16:18:54 2019
Module time:
	user time   =      77.43 seconds =       1.29 minutes
	system time =       1.41 seconds =       0.02 minutes
	total time  =         22 seconds =       0.37 minutes
Total time:
	user time   =      77.43 seconds =       1.29 minutes
	system time =       1.41 seconds =       0.02 minutes
	total time  =         22 seconds =       0.37 minutes

  //>>>>>>>>>>>>>>>>>>>>>>>>>>>>>>>>>>>//
  //            Monomer A HF           //
  //<<<<<<<<<<<<<<<<<<<<<<<<<<<<<<<<<<<//


*** tstart() called on node54.bme.utexas.edu
*** at Mon Sep  9 16:18:54 2019

   => Loading Basis Set <=

    Name: AUG-CC-PVTZ
    Role: ORBITAL
    Keyword: BASIS
    atoms 1, 7                 entry C          line   235 file /home/xy3866/psi4conda/share/psi4/basis/aug-cc-pvtz.gbs 
    atoms 2, 5-6, 8, 10, 12-13 entry H          line    36 file /home/xy3866/psi4conda/share/psi4/basis/aug-cc-pvtz.gbs 
    atoms 3                    entry O          line   327 file /home/xy3866/psi4conda/share/psi4/basis/aug-cc-pvtz.gbs 
    atoms 4, 9, 11             entry N          line   281 file /home/xy3866/psi4conda/share/psi4/basis/aug-cc-pvtz.gbs 


         ---------------------------------------------------------
                                   SCF
               by Justin Turney, Rob Parrish, Andy Simmonett
                          and Daniel G. A. Smith
                              RHF Reference
                        4 Threads,  30517 MiB Core
         ---------------------------------------------------------

  ==> Geometry <==

    Molecular point group: c1
    Full point group: C1

    Geometry (in Angstrom), charge = 0, multiplicity = 1:

       Center              X                  Y                   Z               Mass       
    ------------   -----------------  -----------------  -----------------  -----------------
         C           -1.742429548315     0.243717455243     0.000010145091    12.000000000000
         H           -2.839943548315     0.309945455243    -0.000010854909     1.007825032230
         O           -1.045451548315     1.254204455243    -0.000003854909    15.994914619570
         N           -1.286475548315    -1.017430544757     0.000001145091    14.003074004430
         H           -0.277913548315    -1.214432544757     0.000000145091     1.007825032230
         H           -1.947059548315    -1.771363544757    -0.000009854909     1.007825032230
      Gh(C)           1.785573351685    -0.230330544757     0.000001245091    12.000000000000
      Gh(H)           2.875485351685    -0.256598544757    -0.000002754909     1.007825032230
      Gh(N)           1.053667351685    -1.291989544757    -0.000000754909    14.003074004430
      Gh(H)           1.653432351685    -2.108308544757    -0.000006754909     1.007825032230
      Gh(N)           1.273398351685     1.014611455243    -0.000002754909    14.003074004430
      Gh(H)           0.266758351685     1.164587455243    -0.000003754909     1.007825032230
      Gh(H)           1.889285351685     1.802164455243    -0.000007754909     1.007825032230

  Running in c1 symmetry.

  Rotational constants: A =      0.18462  B =      0.09273  C =      0.06172 [cm^-1]
  Rotational constants: A =   5534.69224  B =   2779.82783  C =   1850.43651 [MHz]
  Nuclear repulsion =   71.120500652173718

  Charge       = 0
  Multiplicity = 1
  Electrons    = 24
  Nalpha       = 12
  Nbeta        = 12

  ==> Algorithm <==

  SCF Algorithm Type is DF.
  DIIS enabled.
  MOM disabled.
  Fractional occupation disabled.
  Guess Type is SAD.
  Energy threshold   = 1.00e-08
  Density threshold  = 1.00e-08
  Integral threshold = 0.00e+00

  ==> Primary Basis <==

  Basis Set: AUG-CC-PVTZ
    Blend: AUG-CC-PVTZ
    Number of shells: 147
    Number of basis function: 437
    Number of Cartesian functions: 505
    Spherical Harmonics?: true
    Max angular momentum: 3

   => Loading Basis Set <=

    Name: (AUG-CC-PVTZ AUX)
    Role: JKFIT
    Keyword: DF_BASIS_SCF
    atoms 1, 7                 entry C          line   162 file /home/xy3866/psi4conda/share/psi4/basis/aug-cc-pvtz-jkfit.gbs 
    atoms 2, 5-6, 8, 10, 12-13 entry H          line    70 file /home/xy3866/psi4conda/share/psi4/basis/aug-cc-pvtz-jkfit.gbs 
    atoms 3                    entry O          line   286 file /home/xy3866/psi4conda/share/psi4/basis/aug-cc-pvtz-jkfit.gbs 
    atoms 4, 9, 11             entry N          line   224 file /home/xy3866/psi4conda/share/psi4/basis/aug-cc-pvtz-jkfit.gbs 

  ==> Pre-Iterations <==

   -------------------------------------------------------
    Irrep   Nso     Nmo     Nalpha   Nbeta   Ndocc  Nsocc
   -------------------------------------------------------
     A        437     437       0       0       0       0
   -------------------------------------------------------
    Total     437     437      12      12      12       0
   -------------------------------------------------------

  ==> Integral Setup <==

  ==> DiskDFJK: Density-Fitted J/K Matrices <==

    J tasked:                  Yes
    K tasked:                  Yes
    wK tasked:                  No
    OpenMP threads:              4
    Integrals threads:           4
    Memory [MiB]:            22888
    Algorithm:                Core
    Integral Cache:           LOAD
    Schwarz Cutoff:          1E-12
    Fitting Condition:       1E-10

   => Auxiliary Basis Set <=

  Basis Set: (AUG-CC-PVTZ AUX)
    Blend: AUG-CC-PVTZ-JKFIT
    Number of shells: 278
    Number of basis function: 946
    Number of Cartesian functions: 1171
    Spherical Harmonics?: true
    Max angular momentum: 4

  Minimum eigenvalue in the overlap matrix is 1.7581373977E-05.
  Using Symmetric Orthogonalization.

  SCF Guess: Superposition of Atomic Densities via on-the-fly atomic UHF.

  ==> Iterations <==

                           Total Energy        Delta E     RMS |[F,P]|

   @DF-RHF iter SAD:  -168.19954698996420   -1.68200e+02   0.00000e+00 
   @DF-RHF iter   1:  -168.87916807035845   -6.79621e-01   1.22478e-03 DIIS
   @DF-RHF iter   2:  -168.95730753842852   -7.81395e-02   8.37993e-04 DIIS
   @DF-RHF iter   3:  -169.00116820041814   -4.38607e-02   1.20124e-04 DIIS
   @DF-RHF iter   4:  -169.00261339345326   -1.44519e-03   5.20357e-05 DIIS
   @DF-RHF iter   5:  -169.00291901613795   -3.05623e-04   1.04737e-05 DIIS
   @DF-RHF iter   6:  -169.00294953568732   -3.05195e-05   4.99774e-06 DIIS
   @DF-RHF iter   7:  -169.00295595197520   -6.41629e-06   2.01167e-06 DIIS
   @DF-RHF iter   8:  -169.00295707552317   -1.12355e-06   6.09090e-07 DIIS
   @DF-RHF iter   9:  -169.00295718127808   -1.05755e-07   1.68068e-07 DIIS
   @DF-RHF iter  10:  -169.00295718959484   -8.31676e-09   4.15275e-08 DIIS
   @DF-RHF iter  11:  -169.00295719001005   -4.15213e-10   7.43649e-09 DIIS
  Energy and wave function converged.


  ==> Post-Iterations <==

    Orbital Energies [Eh]
    ---------------------

    Doubly Occupied:                                                      

       1A    -20.526691     2A    -15.602836     3A    -11.356492  
       4A     -1.376540     5A     -1.226873     6A     -0.853731  
       7A     -0.755389     8A     -0.676720     9A     -0.602568  
      10A     -0.571839    11A     -0.434948    12A     -0.421996  

    Virtual:                                                              

      13A      0.017571    14A      0.029447    15A      0.039055  
      16A      0.051516    17A      0.055662    18A      0.070186  
      19A      0.072564    20A      0.086664    21A      0.086858  
      22A      0.092548    23A      0.108362    24A      0.115859  
      25A      0.123696    26A      0.126328    27A      0.137120  
      28A      0.141246    29A      0.149732    30A      0.153283  
      31A      0.159036    32A      0.168097    33A      0.174026  
      34A      0.191682    35A      0.195996    36A      0.206119  
      37A      0.210612    38A      0.221692    39A      0.246809  
      40A      0.253019    41A      0.257354    42A      0.258443  
      43A      0.272317    44A      0.283063    45A      0.289386  
      46A      0.295632    47A      0.299897    48A      0.315264  
      49A      0.315291    50A      0.326017    51A      0.339500  
      52A      0.341893    53A      0.348596    54A      0.350717  
      55A      0.363074    56A      0.363218    57A      0.366562  
      58A      0.370011    59A      0.384874    60A      0.398739  
      61A      0.400924    62A      0.406464    63A      0.414165  
      64A      0.426173    65A      0.428753    66A      0.431673  
      67A      0.444071    68A      0.447151    69A      0.462335  
      70A      0.468595    71A      0.476084    72A      0.498242  
      73A      0.502191    74A      0.515129    75A      0.531614  
      76A      0.545774    77A      0.558799    78A      0.560681  
      79A      0.569208    80A      0.580250    81A      0.581843  
      82A      0.593080    83A      0.598336    84A      0.618761  
      85A      0.652218    86A      0.654015    87A      0.657589  
      88A      0.666501    89A      0.673088    90A      0.702745  
      91A      0.713167    92A      0.722930    93A      0.730518  
      94A      0.747379    95A      0.753774    96A      0.762501  
      97A      0.779011    98A      0.785485    99A      0.787693  
     100A      0.800767   101A      0.801752   102A      0.807534  
     103A      0.816552   104A      0.830816   105A      0.844707  
     106A      0.850632   107A      0.867324   108A      0.879559  
     109A      0.891392   110A      0.905391   111A      0.905423  
     112A      0.915291   113A      0.920475   114A      0.932170  
     115A      0.936529   116A      0.941274   117A      0.955372  
     118A      0.961189   119A      0.972764   120A      0.979307  
     121A      0.998367   122A      1.014752   123A      1.023815  
     124A      1.037415   125A      1.045859   126A      1.053069  
     127A      1.063760   128A      1.070653   129A      1.072276  
     130A      1.085415   131A      1.094160   132A      1.097891  
     133A      1.114786   134A      1.127860   135A      1.141982  
     136A      1.147761   137A      1.165348   138A      1.168415  
     139A      1.179729   140A      1.195395   141A      1.196618  
     142A      1.206236   143A      1.217744   144A      1.243133  
     145A      1.248921   146A      1.256085   147A      1.272853  
     148A      1.282477   149A      1.291017   150A      1.310443  
     151A      1.334736   152A      1.338450   153A      1.350518  
     154A      1.365658   155A      1.366195   156A      1.393891  
     157A      1.394899   158A      1.419963   159A      1.421275  
     160A      1.436931   161A      1.462437   162A      1.480708  
     163A      1.492709   164A      1.499619   165A      1.503596  
     166A      1.509036   167A      1.510938   168A      1.518045  
     169A      1.526791   170A      1.533662   171A      1.551051  
     172A      1.583866   173A      1.590155   174A      1.601952  
     175A      1.623967   176A      1.652107   177A      1.652702  
     178A      1.661243   179A      1.662885   180A      1.671952  
     181A      1.713055   182A      1.713227   183A      1.720195  
     184A      1.733067   185A      1.751000   186A      1.754295  
     187A      1.759215   188A      1.761453   189A      1.772075  
     190A      1.773733   191A      1.787043   192A      1.831694  
     193A      1.842463   194A      1.845095   195A      1.867947  
     196A      1.887950   197A      1.906724   198A      1.913948  
     199A      1.938761   200A      1.963174   201A      1.999677  
     202A      2.009743   203A      2.046750   204A      2.061030  
     205A      2.095647   206A      2.118052   207A      2.127281  
     208A      2.140884   209A      2.179364   210A      2.190912  
     211A      2.194929   212A      2.209206   213A      2.212244  
     214A      2.239462   215A      2.266234   216A      2.305698  
     217A      2.342032   218A      2.357706   219A      2.375882  
     220A      2.415019   221A      2.428249   222A      2.430626  
     223A      2.445145   224A      2.466161   225A      2.482688  
     226A      2.483278   227A      2.504450   228A      2.519937  
     229A      2.540424   230A      2.557013   231A      2.557524  
     232A      2.588936   233A      2.602537   234A      2.615252  
     235A      2.643781   236A      2.655848   237A      2.680505  
     238A      2.726281   239A      2.734855   240A      2.751968  
     241A      2.769531   242A      2.782511   243A      2.791353  
     244A      2.809471   245A      2.842845   246A      2.851341  
     247A      2.880355   248A      2.896026   249A      2.907270  
     250A      2.914055   251A      2.965204   252A      2.971366  
     253A      2.992969   254A      2.999002   255A      3.017204  
     256A      3.055973   257A      3.090034   258A      3.118505  
     259A      3.144046   260A      3.174132   261A      3.207663  
     262A      3.246514   263A      3.261519   264A      3.273359  
     265A      3.339842   266A      3.352082   267A      3.382361  
     268A      3.409515   269A      3.444448   270A      3.460014  
     271A      3.485149   272A      3.531619   273A      3.574225  
     274A      3.598702   275A      3.671188   276A      3.688072  
     277A      3.692149   278A      3.748696   279A      3.777403  
     280A      3.827160   281A      3.880341   282A      3.901413  
     283A      3.974640   284A      4.035340   285A      4.044127  
     286A      4.086825   287A      4.114175   288A      4.118949  
     289A      4.161975   290A      4.183445   291A      4.204724  
     292A      4.212782   293A      4.260478   294A      4.302007  
     295A      4.311209   296A      4.363100   297A      4.372069  
     298A      4.400034   299A      4.408327   300A      4.448482  
     301A      4.456202   302A      4.483401   303A      4.491525  
     304A      4.502887   305A      4.515653   306A      4.573562  
     307A      4.578246   308A      4.594978   309A      4.628806  
     310A      4.705214   311A      4.753477   312A      4.773633  
     313A      4.786714   314A      4.792213   315A      4.814323  
     316A      4.816747   317A      4.840491   318A      4.886715  
     319A      4.889150   320A      4.922243   321A      4.938959  
     322A      4.942993   323A      4.957681   324A      4.961067  
     325A      4.983187   326A      5.010636   327A      5.012689  
     328A      5.044456   329A      5.057693   330A      5.078075  
     331A      5.102622   332A      5.123080   333A      5.141636  
     334A      5.184719   335A      5.215518   336A      5.243398  
     337A      5.255141   338A      5.261921   339A      5.310808  
     340A      5.337902   341A      5.359336   342A      5.401196  
     343A      5.422479   344A      5.434930   345A      5.475215  
     346A      5.495309   347A      5.497016   348A      5.512118  
     349A      5.563147   350A      5.570132   351A      5.594630  
     352A      5.615406   353A      5.711794   354A      5.725083  
     355A      5.772779   356A      5.775957   357A      5.834072  
     358A      5.876118   359A      5.923311   360A      5.923484  
     361A      5.942518   362A      6.011644   363A      6.037089  
     364A      6.054085   365A      6.084349   366A      6.119973  
     367A      6.147387   368A      6.167569   369A      6.229389  
     370A      6.317626   371A      6.354569   372A      6.380358  
     373A      6.426733   374A      6.499461   375A      6.501492  
     376A      6.556816   377A      6.605457   378A      6.612829  
     379A      6.649158   380A      6.671735   381A      6.674558  
     382A      6.700582   383A      6.766532   384A      6.843562  
     385A      6.899563   386A      6.904276   387A      6.913650  
     388A      6.967349   389A      6.985642   390A      7.045594  
     391A      7.109097   392A      7.203998   393A      7.242111  
     394A      7.265652   395A      7.281524   396A      7.296916  
     397A      7.406577   398A      7.435957   399A      7.488251  
     400A      7.541544   401A      7.557214   402A      7.638490  
     403A      7.649574   404A      7.677834   405A      7.704916  
     406A      7.759544   407A      7.761831   408A      7.845396  
     409A      7.908194   410A      7.950191   411A      8.018080  
     412A      8.019815   413A      8.183660   414A      8.207245  
     415A      8.422939   416A      8.499299   417A      8.645094  
     418A      8.779282   419A      8.971150   420A      9.101051  
     421A      9.412562   422A      9.485672   423A      9.711902  
     424A      9.839463   425A     10.668047   426A     11.047594  
     427A     11.340830   428A     11.783224   429A     11.951956  
     430A     12.429893   431A     13.337045   432A     16.291221  
     433A     18.377883   434A     19.696829   435A     52.794246  
     436A     60.332494   437A     63.777672  

    Final Occupation by Irrep:
              A 
    DOCC [    12 ]

  @DF-RHF Final Energy:  -169.00295719001005

   => Energetics <=

    Nuclear Repulsion Energy =             71.1205006521737175
    One-Electron Energy =                -371.4336620191638758
    Two-Electron Energy =                 131.3102041769800792
    Total Energy =                       -169.0029571900100507

Computation Completed


Properties will be evaluated at   0.000000,   0.000000,   0.000000 [a0]

Properties computed using the SCF density matrix

  Nuclear Dipole Moment: [e a0]
     X:   -62.1501      Y:     3.2089      Z:     0.0000

  Electronic Dipole Moment: [e a0]
     X:    61.5702      Y:    -4.8686      Z:    -0.0000

  Dipole Moment: [e a0]
     X:    -0.5799      Y:    -1.6598      Z:     0.0000     Total:     1.7581

  Dipole Moment: [D]
     X:    -1.4739      Y:    -4.2187      Z:     0.0000     Total:     4.4687


*** tstop() called on node54.bme.utexas.edu at Mon Sep  9 16:19:05 2019
Module time:
	user time   =      40.98 seconds =       0.68 minutes
	system time =       0.77 seconds =       0.01 minutes
	total time  =         11 seconds =       0.18 minutes
Total time:
	user time   =     118.43 seconds =       1.97 minutes
	system time =       2.18 seconds =       0.04 minutes
	total time  =         33 seconds =       0.55 minutes

  //>>>>>>>>>>>>>>>>>>>>>>>>>>>>>>>>>>>//
  //            Monomer B HF           //
  //<<<<<<<<<<<<<<<<<<<<<<<<<<<<<<<<<<<//


*** tstart() called on node54.bme.utexas.edu
*** at Mon Sep  9 16:19:05 2019

   => Loading Basis Set <=

    Name: AUG-CC-PVTZ
    Role: ORBITAL
    Keyword: BASIS
    atoms 1, 7                 entry C          line   235 file /home/xy3866/psi4conda/share/psi4/basis/aug-cc-pvtz.gbs 
    atoms 2, 5-6, 8, 10, 12-13 entry H          line    36 file /home/xy3866/psi4conda/share/psi4/basis/aug-cc-pvtz.gbs 
    atoms 3                    entry O          line   327 file /home/xy3866/psi4conda/share/psi4/basis/aug-cc-pvtz.gbs 
    atoms 4, 9, 11             entry N          line   281 file /home/xy3866/psi4conda/share/psi4/basis/aug-cc-pvtz.gbs 


         ---------------------------------------------------------
                                   SCF
               by Justin Turney, Rob Parrish, Andy Simmonett
                          and Daniel G. A. Smith
                              RHF Reference
                        4 Threads,  30517 MiB Core
         ---------------------------------------------------------

  ==> Geometry <==

    Molecular point group: c1
    Full point group: C1

    Geometry (in Angstrom), charge = 0, multiplicity = 1:

       Center              X                  Y                   Z               Mass       
    ------------   -----------------  -----------------  -----------------  -----------------
      Gh(C)          -1.742429548315     0.243717455243     0.000010145091    12.000000000000
      Gh(H)          -2.839943548315     0.309945455243    -0.000010854909     1.007825032230
      Gh(O)          -1.045451548315     1.254204455243    -0.000003854909    15.994914619570
      Gh(N)          -1.286475548315    -1.017430544757     0.000001145091    14.003074004430
      Gh(H)          -0.277913548315    -1.214432544757     0.000000145091     1.007825032230
      Gh(H)          -1.947059548315    -1.771363544757    -0.000009854909     1.007825032230
         C            1.785573351685    -0.230330544757     0.000001245091    12.000000000000
         H            2.875485351685    -0.256598544757    -0.000002754909     1.007825032230
         N            1.053667351685    -1.291989544757    -0.000000754909    14.003074004430
         H            1.653432351685    -2.108308544757    -0.000006754909     1.007825032230
         N            1.273398351685     1.014611455243    -0.000002754909    14.003074004430
         H            0.266758351685     1.164587455243    -0.000003754909     1.007825032230
         H            1.889285351685     1.802164455243    -0.000007754909     1.007825032230

  Running in c1 symmetry.

  Rotational constants: A =      0.18462  B =      0.09273  C =      0.06172 [cm^-1]
  Rotational constants: A =   5534.69224  B =   2779.82783  C =   1850.43651 [MHz]
  Nuclear repulsion =   72.220840074253047

  Charge       = 0
  Multiplicity = 1
  Electrons    = 24
  Nalpha       = 12
  Nbeta        = 12

  ==> Algorithm <==

  SCF Algorithm Type is DF.
  DIIS enabled.
  MOM disabled.
  Fractional occupation disabled.
  Guess Type is SAD.
  Energy threshold   = 1.00e-08
  Density threshold  = 1.00e-08
  Integral threshold = 0.00e+00

  ==> Primary Basis <==

  Basis Set: AUG-CC-PVTZ
    Blend: AUG-CC-PVTZ
    Number of shells: 147
    Number of basis function: 437
    Number of Cartesian functions: 505
    Spherical Harmonics?: true
    Max angular momentum: 3

   => Loading Basis Set <=

    Name: (AUG-CC-PVTZ AUX)
    Role: JKFIT
    Keyword: DF_BASIS_SCF
    atoms 1, 7                 entry C          line   162 file /home/xy3866/psi4conda/share/psi4/basis/aug-cc-pvtz-jkfit.gbs 
    atoms 2, 5-6, 8, 10, 12-13 entry H          line    70 file /home/xy3866/psi4conda/share/psi4/basis/aug-cc-pvtz-jkfit.gbs 
    atoms 3                    entry O          line   286 file /home/xy3866/psi4conda/share/psi4/basis/aug-cc-pvtz-jkfit.gbs 
    atoms 4, 9, 11             entry N          line   224 file /home/xy3866/psi4conda/share/psi4/basis/aug-cc-pvtz-jkfit.gbs 

  ==> Pre-Iterations <==

   -------------------------------------------------------
    Irrep   Nso     Nmo     Nalpha   Nbeta   Ndocc  Nsocc
   -------------------------------------------------------
     A        437     437       0       0       0       0
   -------------------------------------------------------
    Total     437     437      12      12      12       0
   -------------------------------------------------------

  ==> Integral Setup <==

  ==> DiskDFJK: Density-Fitted J/K Matrices <==

    J tasked:                  Yes
    K tasked:                  Yes
    wK tasked:                  No
    OpenMP threads:              4
    Integrals threads:           4
    Memory [MiB]:            22888
    Algorithm:                Core
    Integral Cache:           LOAD
    Schwarz Cutoff:          1E-12
    Fitting Condition:       1E-10

   => Auxiliary Basis Set <=

  Basis Set: (AUG-CC-PVTZ AUX)
    Blend: AUG-CC-PVTZ-JKFIT
    Number of shells: 278
    Number of basis function: 946
    Number of Cartesian functions: 1171
    Spherical Harmonics?: true
    Max angular momentum: 4

  Minimum eigenvalue in the overlap matrix is 1.7581373977E-05.
  Using Symmetric Orthogonalization.

  SCF Guess: Superposition of Atomic Densities via on-the-fly atomic UHF.

  ==> Iterations <==

                           Total Energy        Delta E     RMS |[F,P]|

   @DF-RHF iter SAD:  -148.39145797702082   -1.48391e+02   0.00000e+00 
   @DF-RHF iter   1:  -148.99814966336984   -6.06692e-01   1.25649e-03 DIIS
   @DF-RHF iter   2:  -149.10015220596568   -1.02003e-01   7.40189e-04 DIIS
   @DF-RHF iter   3:  -149.14193870218594   -4.17865e-02   1.03377e-04 DIIS
   @DF-RHF iter   4:  -149.14334781743688   -1.40912e-03   5.11195e-05 DIIS
   @DF-RHF iter   5:  -149.14362376287855   -2.75945e-04   9.29209e-06 DIIS
   @DF-RHF iter   6:  -149.14365203506733   -2.82722e-05   4.37912e-06 DIIS
   @DF-RHF iter   7:  -149.14365666855869   -4.63349e-06   1.76438e-06 DIIS
   @DF-RHF iter   8:  -149.14365759642891   -9.27870e-07   5.21141e-07 DIIS
   @DF-RHF iter   9:  -149.14365768113046   -8.47016e-08   1.58992e-07 DIIS
   @DF-RHF iter  10:  -149.14365768856746   -7.43700e-09   3.96469e-08 DIIS
   @DF-RHF iter  11:  -149.14365768903693   -4.69470e-10   7.56597e-09 DIIS
  Energy and wave function converged.


  ==> Post-Iterations <==

    Orbital Energies [Eh]
    ---------------------

    Doubly Occupied:                                                      

       1A    -15.580915     2A    -15.519577     3A    -11.314715  
       4A     -1.259437     5A     -1.137340     6A     -0.830832  
       7A     -0.746496     8A     -0.640060     9A     -0.616566  
      10A     -0.530111    11A     -0.419644    12A     -0.359596  

    Virtual:                                                              

      13A      0.022380    14A      0.031788    15A      0.037871  
      16A      0.052554    17A      0.057333    18A      0.070772  
      19A      0.073835    20A      0.085718    21A      0.087447  
      22A      0.100705    23A      0.105533    24A      0.117295  
      25A      0.126744    26A      0.134610    27A      0.139385  
      28A      0.145905    29A      0.150769    30A      0.157368  
      31A      0.161938    32A      0.173954    33A      0.175832  
      34A      0.185428    35A      0.208055    36A      0.208715  
      37A      0.221120    38A      0.222859    39A      0.229673  
      40A      0.242903    41A      0.252006    42A      0.258180  
      43A      0.264700    44A      0.286294    45A      0.288375  
      46A      0.310272    47A      0.310965    48A      0.312639  
      49A      0.325068    50A      0.325201    51A      0.335092  
      52A      0.337849    53A      0.347096    54A      0.360979  
      55A      0.364694    56A      0.365961    57A      0.371604  
      58A      0.384988    59A      0.401761    60A      0.404631  
      61A      0.409742    62A      0.412054    63A      0.419473  
      64A      0.426392    65A      0.431005    66A      0.435910  
      67A      0.448005    68A      0.457977    69A      0.459223  
      70A      0.483712    71A      0.485109    72A      0.500108  
      73A      0.511144    74A      0.517343    75A      0.530649  
      76A      0.536621    77A      0.538986    78A      0.543237  
      79A      0.562737    80A      0.577068    81A      0.587917  
      82A      0.599506    83A      0.602832    84A      0.638057  
      85A      0.659897    86A      0.668420    87A      0.671219  
      88A      0.673513    89A      0.685559    90A      0.688698  
      91A      0.703793    92A      0.715857    93A      0.717095  
      94A      0.722912    95A      0.751318    96A      0.756583  
      97A      0.769555    98A      0.773472    99A      0.780001  
     100A      0.798315   101A      0.800802   102A      0.814526  
     103A      0.834612   104A      0.839724   105A      0.850391  
     106A      0.870306   107A      0.882502   108A      0.886626  
     109A      0.897923   110A      0.912793   111A      0.915436  
     112A      0.915483   113A      0.925976   114A      0.933869  
     115A      0.936086   116A      0.951827   117A      0.969452  
     118A      0.975494   119A      0.986993   120A      0.988910  
     121A      0.989430   122A      1.000250   123A      1.019527  
     124A      1.022989   125A      1.024259   126A      1.036951  
     127A      1.051720   128A      1.088297   129A      1.092668  
     130A      1.098398   131A      1.102090   132A      1.108775  
     133A      1.115624   134A      1.125566   135A      1.131613  
     136A      1.150754   137A      1.160275   138A      1.164147  
     139A      1.181877   140A      1.187799   141A      1.196236  
     142A      1.214719   143A      1.215057   144A      1.225514  
     145A      1.234651   146A      1.257718   147A      1.259519  
     148A      1.271242   149A      1.277293   150A      1.302145  
     151A      1.312701   152A      1.341348   153A      1.353732  
     154A      1.365818   155A      1.370567   156A      1.387216  
     157A      1.400993   158A      1.401474   159A      1.416099  
     160A      1.430001   161A      1.430479   162A      1.440531  
     163A      1.445224   164A      1.464367   165A      1.484776  
     166A      1.512267   167A      1.517411   168A      1.523232  
     169A      1.537581   170A      1.547336   171A      1.553240  
     172A      1.554041   173A      1.583880   174A      1.589825  
     175A      1.625837   176A      1.631481   177A      1.641454  
     178A      1.662727   179A      1.691556   180A      1.696474  
     181A      1.716107   182A      1.716904   183A      1.732007  
     184A      1.733985   185A      1.746206   186A      1.759939  
     187A      1.772090   188A      1.781125   189A      1.796613  
     190A      1.804990   191A      1.818730   192A      1.830578  
     193A      1.852343   194A      1.905574   195A      1.923283  
     196A      1.926793   197A      1.933493   198A      1.953724  
     199A      1.969599   200A      1.990835   201A      1.996536  
     202A      2.004215   203A      2.055021   204A      2.060800  
     205A      2.106447   206A      2.126283   207A      2.132128  
     208A      2.151713   209A      2.158652   210A      2.166806  
     211A      2.202300   212A      2.213285   213A      2.214625  
     214A      2.218731   215A      2.245887   216A      2.247268  
     217A      2.299295   218A      2.340946   219A      2.361739  
     220A      2.397430   221A      2.410916   222A      2.411580  
     223A      2.448340   224A      2.478515   225A      2.488691  
     226A      2.488892   227A      2.513704   228A      2.531517  
     229A      2.570559   230A      2.573947   231A      2.590630  
     232A      2.592806   233A      2.621907   234A      2.626353  
     235A      2.654131   236A      2.657169   237A      2.668268  
     238A      2.706071   239A      2.714972   240A      2.730878  
     241A      2.731189   242A      2.744983   243A      2.770672  
     244A      2.785356   245A      2.829030   246A      2.833335  
     247A      2.863551   248A      2.903229   249A      2.920832  
     250A      2.944486   251A      2.966970   252A      2.988726  
     253A      3.014888   254A      3.057433   255A      3.076420  
     256A      3.104882   257A      3.116596   258A      3.173701  
     259A      3.232350   260A      3.236322   261A      3.249972  
     262A      3.301331   263A      3.305337   264A      3.315965  
     265A      3.317847   266A      3.366293   267A      3.403760  
     268A      3.471269   269A      3.485688   270A      3.508931  
     271A      3.543070   272A      3.575704   273A      3.630332  
     274A      3.654790   275A      3.699814   276A      3.717107  
     277A      3.732850   278A      3.762593   279A      3.833746  
     280A      3.873143   281A      3.886462   282A      3.907096  
     283A      3.915766   284A      3.981188   285A      4.043725  
     286A      4.071447   287A      4.076312   288A      4.113628  
     289A      4.117378   290A      4.142870   291A      4.168306  
     292A      4.188564   293A      4.212154   294A      4.236194  
     295A      4.254511   296A      4.275835   297A      4.312775  
     298A      4.356489   299A      4.359555   300A      4.371974  
     301A      4.392444   302A      4.431151   303A      4.458167  
     304A      4.466008   305A      4.480887   306A      4.524024  
     307A      4.577822   308A      4.616424   309A      4.620895  
     310A      4.635841   311A      4.638336   312A      4.681700  
     313A      4.699933   314A      4.733054   315A      4.773481  
     316A      4.788036   317A      4.828352   318A      4.843216  
     319A      4.844894   320A      4.875526   321A      4.875965  
     322A      4.887877   323A      4.903710   324A      4.915820  
     325A      4.951573   326A      4.979514   327A      4.984077  
     328A      4.994718   329A      5.032949   330A      5.044394  
     331A      5.062826   332A      5.116174   333A      5.120229  
     334A      5.158063   335A      5.171488   336A      5.209393  
     337A      5.224853   338A      5.227266   339A      5.251566  
     340A      5.269707   341A      5.313266   342A      5.340726  
     343A      5.349621   344A      5.370283   345A      5.392513  
     346A      5.414718   347A      5.449120   348A      5.458944  
     349A      5.478950   350A      5.510204   351A      5.528652  
     352A      5.562735   353A      5.590034   354A      5.605658  
     355A      5.632930   356A      5.670701   357A      5.671106  
     358A      5.730474   359A      5.755000   360A      5.757862  
     361A      5.806098   362A      5.856496   363A      5.871503  
     364A      5.891764   365A      5.908563   366A      5.969714  
     367A      5.991259   368A      6.014770   369A      6.068285  
     370A      6.082056   371A      6.135202   372A      6.162427  
     373A      6.165908   374A      6.229064   375A      6.245221  
     376A      6.289164   377A      6.329584   378A      6.393400  
     379A      6.486398   380A      6.494256   381A      6.537288  
     382A      6.568211   383A      6.664373   384A      6.666037  
     385A      6.707875   386A      6.754001   387A      6.764396  
     388A      6.836623   389A      6.851519   390A      6.941694  
     391A      6.985714   392A      7.030124   393A      7.067793  
     394A      7.116869   395A      7.163188   396A      7.257225  
     397A      7.427239   398A      7.528240   399A      7.653820  
     400A      7.701987   401A      7.726106   402A      7.797638  
     403A      7.798197   404A      7.878902   405A      7.884423  
     406A      7.895383   407A      7.973179   408A      8.066530  
     409A      8.089192   410A      8.198600   411A      8.255272  
     412A      8.525782   413A      8.716460   414A      8.880703  
     415A      9.091911   416A      9.236762   417A      9.664187  
     418A      9.681723   419A      9.876636   420A      9.930585  
     421A     10.211300   422A     10.472933   423A     10.719652  
     424A     11.084654   425A     11.353130   426A     11.863681  
     427A     11.969270   428A     12.639127   429A     13.068827  
     430A     13.251554   431A     14.219942   432A     17.512783  
     433A     18.325954   434A     19.733418   435A     52.859207  
     436A     63.128615   437A     67.820784  

    Final Occupation by Irrep:
              A 
    DOCC [    12 ]

  @DF-RHF Final Energy:  -149.14365768903693

   => Energetics <=

    Nuclear Repulsion Energy =             72.2208400742530472
    One-Electron Energy =                -344.8184136638782888
    Two-Electron Energy =                 123.4539159005883278
    Total Energy =                       -149.1436576890369281

Computation Completed


Properties will be evaluated at   0.000000,   0.000000,   0.000000 [a0]

Properties computed using the SCF density matrix

  Nuclear Dipole Moment: [e a0]
     X:    63.6608      Y:    -5.1434      Z:    -0.0001

  Electronic Dipole Moment: [e a0]
     X:   -62.8179      Y:     6.1139      Z:     0.0001

  Dipole Moment: [e a0]
     X:     0.8429      Y:     0.9704      Z:    -0.0000     Total:     1.2854

  Dipole Moment: [D]
     X:     2.1426      Y:     2.4666      Z:    -0.0000     Total:     3.2672


*** tstop() called on node54.bme.utexas.edu at Mon Sep  9 16:19:17 2019
Module time:
	user time   =      41.94 seconds =       0.70 minutes
	system time =       0.72 seconds =       0.01 minutes
	total time  =         12 seconds =       0.20 minutes
Total time:
	user time   =     160.40 seconds =       2.67 minutes
	system time =       2.90 seconds =       0.05 minutes
	total time  =         45 seconds =       0.75 minutes
  Constructing Basis Sets for SAPT...

   => Loading Basis Set <=

    Name: (AUG-CC-PVTZ AUX)
    Role: RIFIT
    Keyword: DF_BASIS_SAPT
    atoms 1, 7                 entry C          line   148 file /home/xy3866/psi4conda/share/psi4/basis/aug-cc-pvtz-ri.gbs 
    atoms 2, 5-6, 8, 10, 12-13 entry H          line    30 file /home/xy3866/psi4conda/share/psi4/basis/aug-cc-pvtz-ri.gbs 
    atoms 3                    entry O          line   264 file /home/xy3866/psi4conda/share/psi4/basis/aug-cc-pvtz-ri.gbs 
    atoms 4, 9, 11             entry N          line   206 file /home/xy3866/psi4conda/share/psi4/basis/aug-cc-pvtz-ri.gbs 


  //>>>>>>>>>>>>>>>>>>>>>>>>>>>>>>>>>>>//
  //               SAPT2+              //
  //<<<<<<<<<<<<<<<<<<<<<<<<<<<<<<<<<<<//


*** tstart() called on node54.bme.utexas.edu
*** at Mon Sep  9 16:19:17 2019

        SAPT2+  
    Ed Hohenstein
     6 June 2009

      Orbital Information
  --------------------------
    NSO        =       437
    NMO        =       437
    NRI        =       958
    NOCC A     =        12
    NOCC B     =        12
    FOCC A     =         3
    FOCC B     =         3
    NVIR A     =       425
    NVIR B     =       425

    Estimated memory usage: 2008.5 MB

    Natural Orbital Cutoff:   1.000E-06
    Disp(T3) Truncation:            Yes
    CCD (vv|vv) Truncation:         Yes
    MBPT T2 Truncation:             Yes

    Monomer A: 233 virtual orbitals dropped
    Monomer B: 216 virtual orbitals dropped

    Elst10,r            =    -0.131562527378 [Eh]
    Exch10 (S^2)        =     0.242775911578 [Eh]
    Exch10              =     0.261003738735 [Eh]
    Ind20,r (A<-B)      =    -0.058172069394 [Eh]
    Ind20,r (B<-A)      =    -0.076601777079 [Eh]
    Ind20,r             =    -0.134773846473 [Eh]
    Exch-Ind20,r (A<-B) =     0.032871869688 [Eh]
    Exch-Ind20,r (B<-A) =     0.045721030584 [Eh]
    Exch-Ind20,r        =     0.078592900272 [Eh]
    Disp20              =    -0.051531234677 [Eh]
    Disp20 (NO)         =    -0.046782910480 [Eh]
    Exch-Disp20         =     0.011785052054 [Eh]
    Elst12,r            =     0.000697774340 [Eh]
    Exch11              =     0.002448352706 [Eh]
    Exch12              =     0.008209067971 [Eh]
    Ind22               =    -0.012685822852 [Eh]
    Disp21              =     0.006270662358 [Eh]
    Disp22 (SDQ)        =    -0.000011704413 [Eh]

    (i =   1 of   9)         28 seconds
    (i =   2 of   9)         55 seconds
    (i =   3 of   9)         83 seconds
    (i =   4 of   9)        110 seconds
    (i =   5 of   9)        138 seconds
    (i =   6 of   9)        165 seconds
    (i =   7 of   9)        192 seconds
    (i =   8 of   9)        220 seconds
    (i =   9 of   9)        247 seconds

    Disp220 (T)         =    -0.003750959711 [Eh]

    (i =   1 of   9)         31 seconds
    (i =   2 of   9)         61 seconds
    (i =   3 of   9)         92 seconds
    (i =   4 of   9)        122 seconds
    (i =   5 of   9)        153 seconds
    (i =   6 of   9)        185 seconds
    (i =   7 of   9)        219 seconds
    (i =   8 of   9)        249 seconds
    (i =   9 of   9)        280 seconds

    Disp202 (T)         =    -0.003460482440 [Eh]

    Disp22 (T)          =    -0.007211442151 [Eh]

    Est. Disp220 (T)    =    -0.004131670799 [Eh]
    Est. Disp202 (T)    =    -0.003811710962 [Eh]

    Est. Disp22 (T)     =    -0.007943381761 [Eh]

    SAPT Results 
  --------------------------------------------------------------------------------------------------------
    Electrostatics               -130.86475304 [mEh]     -82.11887231 [kcal/mol]    -343.58536176 [kJ/mol]
      Elst10,r                   -131.56252738 [mEh]     -82.55673232 [kcal/mol]    -345.41736804 [kJ/mol]
      Elst12,r                      0.69777434 [mEh]       0.43786001 [kcal/mol]       1.83200628 [kJ/mol]

    Exchange                      271.66115941 [mEh]     170.46995119 [kcal/mol]     713.24627577 [kJ/mol]
      Exch10                      261.00373873 [mEh]     163.78231875 [kcal/mol]     685.26522164 [kJ/mol]
      Exch10(S^2)                 242.77591158 [mEh]     152.34418452 [kcal/mol]     637.40806803 [kJ/mol]
      Exch11(S^2)                   2.44835271 [mEh]       1.53636452 [kcal/mol]       6.42814914 [kJ/mol]
      Exch12(S^2)                   8.20906797 [mEh]       5.15126792 [kcal/mol]      21.55290499 [kJ/mol]

    Induction                     -97.71449397 [mEh]     -61.31677069 [kcal/mol]    -256.54936858 [kJ/mol]
      Ind20,r                    -134.77384647 [mEh]     -84.57186548 [kcal/mol]    -353.84868516 [kJ/mol]
      Ind22                       -12.68582285 [mEh]      -7.96047402 [kcal/mol]     -33.30662331 [kJ/mol]
      Exch-Ind20,r                 78.59290027 [mEh]      49.31778949 [kcal/mol]     206.34563124 [kJ/mol]
      Exch-Ind22                    7.39769352 [mEh]       4.64212277 [kcal/mol]      19.42264165 [kJ/mol]
      delta HF,r (2)              -36.24541844 [mEh]     -22.74434345 [kcal/mol]     -95.16233300 [kJ/mol]

    Dispersion                    -41.43060644 [mEh]     -25.99809804 [kcal/mol]    -108.77604222 [kJ/mol]
      Disp20                      -51.53123468 [mEh]     -32.33633796 [kcal/mol]    -135.29523800 [kJ/mol]
      Disp21                        6.27066236 [mEh]       3.93490004 [kcal/mol]      16.46362175 [kJ/mol]
      Disp22 (SDQ)                 -0.01170441 [mEh]      -0.00734463 [kcal/mol]      -0.03072993 [kJ/mol]
      Disp22 (T)                   -7.21144215 [mEh]      -4.52524827 [kcal/mol]     -18.93363876 [kJ/mol]
      Est. Disp22 (T)              -7.94338176 [mEh]      -4.98454731 [kcal/mol]     -20.85534594 [kJ/mol]
      Exch-Disp20                  11.78505205 [mEh]       7.39523181 [kcal/mol]      30.94164990 [kJ/mol]

  Total HF                         37.01484672 [mEh]      23.22716699 [kcal/mol]      97.18246667 [kJ/mol]
  Total SAPT0                      -2.73133590 [mEh]      -1.71393916 [kcal/mol]      -7.17112143 [kJ/mol]
  Total SAPT2                       3.33572978 [mEh]       2.09320204 [kcal/mol]       8.75795732 [kJ/mol]
  Total SAPT2+                      1.65130596 [mEh]       1.03621014 [kcal/mol]       4.33550321 [kJ/mol]

  Special recipe for scaled SAPT0 (see Manual):
    Electrostatics sSAPT0        -131.56252738 [mEh]     -82.55673232 [kcal/mol]    -345.41736804 [kJ/mol]
    Exchange sSAPT0               261.00373873 [mEh]     163.78231875 [kcal/mol]     685.26522164 [kJ/mol]
    Induction sSAPT0              -73.36151349 [mEh]     -46.03504473 [kcal/mol]    -192.61062715 [kJ/mol]
    Dispersion sSAPT0             -36.88739688 [mEh]     -23.14719100 [kcal/mol]     -96.84784715 [kJ/mol]
  Total sSAPT0                     19.19230099 [mEh]      12.04335069 [kcal/mol]      50.38937930 [kJ/mol]
  --------------------------------------------------------------------------------------------------------

*** tstop() called on node54.bme.utexas.edu at Mon Sep  9 16:32:09 2019
Module time:
	user time   =    2938.51 seconds =      48.98 minutes
	system time =      53.67 seconds =       0.89 minutes
	total time  =        772 seconds =      12.87 minutes
Total time:
	user time   =    3099.24 seconds =      51.65 minutes
	system time =      56.58 seconds =       0.94 minutes
	total time  =        817 seconds =      13.62 minutes

    Psi4 stopped on: Monday, 09 September 2019 04:32PM
    Psi4 wall time for execution: 0:13:36.64

*** Psi4 exiting successfully. Buy a developer a beer!
