
    -----------------------------------------------------------------------
          Psi4: An Open-Source Ab Initio Electronic Structure Package
                               Psi4 1.3.2 release

                         Git: Rev {HEAD} ecbda83 


    R. M. Parrish, L. A. Burns, D. G. A. Smith, A. C. Simmonett,
    A. E. DePrince III, E. G. Hohenstein, U. Bozkaya, A. Yu. Sokolov,
    R. Di Remigio, R. M. Richard, J. F. Gonthier, A. M. James,
    H. R. McAlexander, A. Kumar, M. Saitow, X. Wang, B. P. Pritchard,
    P. Verma, H. F. Schaefer III, K. Patkowski, R. A. King, E. F. Valeev,
    F. A. Evangelista, J. M. Turney, T. D. Crawford, and C. D. Sherrill,
    J. Chem. Theory Comput. 13(7) pp 3185--3197 (2017).
    (doi: 10.1021/acs.jctc.7b00174)


                         Additional Contributions by
    P. Kraus, H. Kruse, M. H. Lechner, M. C. Schieber, R. A. Shaw,
    A. Alenaizan, R. Galvelis, Z. L. Glick, S. Lehtola, and J. P. Misiewicz

    -----------------------------------------------------------------------


    Psi4 started on: Monday, 09 September 2019 07:44PM

    Process ID: 58438
    Host:       node54.bme.utexas.edu
    PSIDATADIR: /home/xy3866/psi4conda/share/psi4
    Memory:     500.0 MiB
    Threads:    4
    
  ==> Input File <==

--------------------------------------------------------------------------
#psi4
#
memory 32 gb

molecule  {
0 1
  C       -1.9644470     0.1609890    -0.0000020
  H       -3.0589320     0.1627090    -0.0000040
  O       -1.3160380     1.1929960    -0.0000020
  O       -1.4968300    -1.0660630     0.0000020
  H       -0.4778920    -1.0649310     0.0000090
--
0 1
  C        1.1647502    -0.1509121    -0.0000031
  H        2.2465662    -0.2731371    -0.0000052
  N        0.3469592    -1.1482791    -0.0000012
  H        0.8575542    -2.0217841    -0.0000012
  N        0.7499002     1.1259119     0.0000018
  H       -0.2461168     1.3244449     0.0000008
  H        1.4168202     1.8705879     0.0000038
units angstrom
no_reorient  #important for SAPT in psi4, default
symmetry c1  #important for SAPT in psi4, default
}

set {
basis aug-cc-pVTZ
scf_type DF
freeze_core True
}
energy('sapt2+')
--------------------------------------------------------------------------

  Memory set to  29.802 GiB by Python driver.

  //>>>>>>>>>>>>>>>>>>>>>>>>>>>>>>>>>>>//
  //              Dimer HF             //
  //<<<<<<<<<<<<<<<<<<<<<<<<<<<<<<<<<<<//


*** tstart() called on node54.bme.utexas.edu
*** at Mon Sep  9 19:44:27 2019

   => Loading Basis Set <=

    Name: AUG-CC-PVTZ
    Role: ORBITAL
    Keyword: BASIS
    atoms 1, 6              entry C          line   235 file /home/xy3866/psi4conda/share/psi4/basis/aug-cc-pvtz.gbs 
    atoms 2, 5, 7, 9, 11-12 entry H          line    36 file /home/xy3866/psi4conda/share/psi4/basis/aug-cc-pvtz.gbs 
    atoms 3-4               entry O          line   327 file /home/xy3866/psi4conda/share/psi4/basis/aug-cc-pvtz.gbs 
    atoms 8, 10             entry N          line   281 file /home/xy3866/psi4conda/share/psi4/basis/aug-cc-pvtz.gbs 


         ---------------------------------------------------------
                                   SCF
               by Justin Turney, Rob Parrish, Andy Simmonett
                          and Daniel G. A. Smith
                              RHF Reference
                        4 Threads,  30517 MiB Core
         ---------------------------------------------------------

  ==> Geometry <==

    Molecular point group: c1
    Full point group: C1

    Geometry (in Angstrom), charge = 0, multiplicity = 1:

       Center              X                  Y                   Z               Mass       
    ------------   -----------------  -----------------  -----------------  -----------------
         C           -1.537042336838     0.140600182369    -0.000001449450    12.000000000000
         H           -2.631527336838     0.142320182369    -0.000003449450     1.007825032230
         O           -0.888633336838     1.172607182369    -0.000001449450    15.994914619570
         O           -1.069425336838    -1.086451817631     0.000002550550    15.994914619570
         H           -0.050487336838    -1.085319817631     0.000009550550     1.007825032230
         C            1.592154863162    -0.171300917631    -0.000002549450    12.000000000000
         H            2.673970863162    -0.293525917631    -0.000004649450     1.007825032230
         N            0.774363863162    -1.168667917631    -0.000000649450    14.003074004430
         H            1.284958863162    -2.042172917631    -0.000000649450     1.007825032230
         N            1.177304863162     1.105523082369     0.000002350550    14.003074004430
         H            0.181287863162     1.304056082369     0.000001350550     1.007825032230
         H            1.844224863162     1.850199082369     0.000004350550     1.007825032230

  Running in c1 symmetry.

  Rotational constants: A =      0.19088  B =      0.12317  C =      0.07486 [cm^-1]
  Rotational constants: A =   5722.42571  B =   3692.68903  C =   2244.38461 [MHz]
  Nuclear repulsion =  261.364843647509247

  Charge       = 0
  Multiplicity = 1
  Electrons    = 48
  Nalpha       = 24
  Nbeta        = 24

  ==> Algorithm <==

  SCF Algorithm Type is DF.
  DIIS enabled.
  MOM disabled.
  Fractional occupation disabled.
  Guess Type is SAD.
  Energy threshold   = 1.00e-08
  Density threshold  = 1.00e-08
  Integral threshold = 0.00e+00

  ==> Primary Basis <==

  Basis Set: AUG-CC-PVTZ
    Blend: AUG-CC-PVTZ
    Number of shells: 138
    Number of basis function: 414
    Number of Cartesian functions: 480
    Spherical Harmonics?: true
    Max angular momentum: 3

   => Loading Basis Set <=

    Name: (AUG-CC-PVTZ AUX)
    Role: JKFIT
    Keyword: DF_BASIS_SCF
    atoms 1, 6              entry C          line   162 file /home/xy3866/psi4conda/share/psi4/basis/aug-cc-pvtz-jkfit.gbs 
    atoms 2, 5, 7, 9, 11-12 entry H          line    70 file /home/xy3866/psi4conda/share/psi4/basis/aug-cc-pvtz-jkfit.gbs 
    atoms 3-4               entry O          line   286 file /home/xy3866/psi4conda/share/psi4/basis/aug-cc-pvtz-jkfit.gbs 
    atoms 8, 10             entry N          line   224 file /home/xy3866/psi4conda/share/psi4/basis/aug-cc-pvtz-jkfit.gbs 

  ==> Pre-Iterations <==

   -------------------------------------------------------
    Irrep   Nso     Nmo     Nalpha   Nbeta   Ndocc  Nsocc
   -------------------------------------------------------
     A        414     414       0       0       0       0
   -------------------------------------------------------
    Total     414     414      24      24      24       0
   -------------------------------------------------------

  ==> Integral Setup <==

  ==> DiskDFJK: Density-Fitted J/K Matrices <==

    J tasked:                  Yes
    K tasked:                  Yes
    wK tasked:                  No
    OpenMP threads:              4
    Integrals threads:           4
    Memory [MiB]:            22888
    Algorithm:                Core
    Integral Cache:           SAVE
    Schwarz Cutoff:          1E-12
    Fitting Condition:       1E-10

   => Auxiliary Basis Set <=

  Basis Set: (AUG-CC-PVTZ AUX)
    Blend: AUG-CC-PVTZ-JKFIT
    Number of shells: 264
    Number of basis function: 900
    Number of Cartesian functions: 1116
    Spherical Harmonics?: true
    Max angular momentum: 4

  Minimum eigenvalue in the overlap matrix is 9.4969823072E-06.
  Using Symmetric Orthogonalization.

  SCF Guess: Superposition of Atomic Densities via on-the-fly atomic UHF.

  ==> Iterations <==

                           Total Energy        Delta E     RMS |[F,P]|

   @DF-RHF iter SAD:  -337.80895501637639   -3.37809e+02   0.00000e+00 
   @DF-RHF iter   1:  -337.43388831078249    3.75067e-01   2.03428e-03 DIIS
   @DF-RHF iter   2:  -337.61139241471352   -1.77504e-01   1.30775e-03 DIIS
   @DF-RHF iter   3:  -337.71438184054034   -1.02989e-01   1.66086e-04 DIIS
   @DF-RHF iter   4:  -337.71674679286639   -2.36495e-03   7.13038e-05 DIIS
   @DF-RHF iter   5:  -337.71714350522979   -3.96712e-04   1.67689e-05 DIIS
   @DF-RHF iter   6:  -337.71717422000768   -3.07148e-05   5.74801e-06 DIIS
   @DF-RHF iter   7:  -337.71717908754198   -4.86753e-06   2.03402e-06 DIIS
   @DF-RHF iter   8:  -337.71717980813736   -7.20595e-07   7.18717e-07 DIIS
   @DF-RHF iter   9:  -337.71717995810087   -1.49964e-07   2.97617e-07 DIIS
   @DF-RHF iter  10:  -337.71717998255747   -2.44566e-08   1.04721e-07 DIIS
   @DF-RHF iter  11:  -337.71717998561149   -3.05403e-09   3.98638e-08 DIIS
   @DF-RHF iter  12:  -337.71717998606977   -4.58272e-10   1.19527e-08 DIIS
   @DF-RHF iter  13:  -337.71717998609660   -2.68301e-11   5.45422e-09 DIIS
  Energy and wave function converged.


  ==> Post-Iterations <==

    Orbital Energies [Eh]
    ---------------------

    Doubly Occupied:                                                      

       1A    -20.534655     2A    -20.487959     3A    -15.531082  
       4A    -15.525735     5A    -11.367328     6A    -11.345200  
       7A     -1.460936     8A     -1.376193     9A     -1.281489  
      10A     -1.172456    11A     -0.964877    12A     -0.855908  
      13A     -0.803385    14A     -0.757830    15A     -0.688155  
      16A     -0.647159    17A     -0.620245    18A     -0.608376  
      19A     -0.557788    20A     -0.539724    21A     -0.461522  
      22A     -0.438782    23A     -0.371463    24A     -0.369605  

    Virtual:                                                              

      25A      0.021883    26A      0.036213    27A      0.040798  
      28A      0.052961    29A      0.066845    30A      0.070294  
      31A      0.070781    32A      0.091631    33A      0.114429  
      34A      0.116670    35A      0.119090    36A      0.124152  
      37A      0.133782    38A      0.138635    39A      0.144932  
      40A      0.154815    41A      0.157200    42A      0.159529  
      43A      0.184071    44A      0.190473    45A      0.190746  
      46A      0.200793    47A      0.206122    48A      0.224145  
      49A      0.234294    50A      0.256099    51A      0.267415  
      52A      0.270282    53A      0.276513    54A      0.278304  
      55A      0.288229    56A      0.301227    57A      0.316223  
      58A      0.319174    59A      0.325415    60A      0.331440  
      61A      0.335564    62A      0.339526    63A      0.341504  
      64A      0.347410    65A      0.370505    66A      0.371362  
      67A      0.374902    68A      0.385781    69A      0.397685  
      70A      0.412848    71A      0.435283    72A      0.437673  
      73A      0.445836    74A      0.448831    75A      0.464639  
      76A      0.473751    77A      0.486433    78A      0.493036  
      79A      0.499471    80A      0.501374    81A      0.505014  
      82A      0.535973    83A      0.537184    84A      0.557579  
      85A      0.566911    86A      0.579030    87A      0.584922  
      88A      0.596252    89A      0.599472    90A      0.604266  
      91A      0.630937    92A      0.649260    93A      0.657439  
      94A      0.664609    95A      0.669195    96A      0.687943  
      97A      0.695584    98A      0.706570    99A      0.706586  
     100A      0.725809   101A      0.728743   102A      0.748562  
     103A      0.767601   104A      0.780152   105A      0.785034  
     106A      0.799004   107A      0.814623   108A      0.825302  
     109A      0.829670   110A      0.840933   111A      0.853020  
     112A      0.874146   113A      0.876895   114A      0.882811  
     115A      0.893380   116A      0.907593   117A      0.922510  
     118A      0.927751   119A      0.947681   120A      0.950226  
     121A      0.964852   122A      0.971347   123A      0.986262  
     124A      0.997316   125A      0.998273   126A      1.002078  
     127A      1.011258   128A      1.033744   129A      1.044794  
     130A      1.048654   131A      1.073352   132A      1.075899  
     133A      1.077922   134A      1.083644   135A      1.103901  
     136A      1.121323   137A      1.124009   138A      1.136820  
     139A      1.138180   140A      1.147944   141A      1.148675  
     142A      1.191747   143A      1.193171   144A      1.205145  
     145A      1.205473   146A      1.216345   147A      1.224851  
     148A      1.241167   149A      1.250163   150A      1.254536  
     151A      1.259441   152A      1.293872   153A      1.294227  
     154A      1.301768   155A      1.334881   156A      1.335415  
     157A      1.355986   158A      1.368483   159A      1.379207  
     160A      1.396251   161A      1.401123   162A      1.408006  
     163A      1.415952   164A      1.426663   165A      1.466961  
     166A      1.468834   167A      1.482303   168A      1.492437  
     169A      1.519334   170A      1.523120   171A      1.545609  
     172A      1.561629   173A      1.576623   174A      1.583538  
     175A      1.596999   176A      1.597945   177A      1.608120  
     178A      1.630143   179A      1.644490   180A      1.658526  
     181A      1.692041   182A      1.695605   183A      1.714570  
     184A      1.719141   185A      1.748388   186A      1.751798  
     187A      1.782236   188A      1.814959   189A      1.820609  
     190A      1.828273   191A      1.895621   192A      1.900007  
     193A      1.912914   194A      1.914276   195A      1.933900  
     196A      1.951097   197A      1.989178   198A      1.989739  
     199A      2.014324   200A      2.038805   201A      2.072046  
     202A      2.084266   203A      2.112467   204A      2.125860  
     205A      2.130572   206A      2.160368   207A      2.179543  
     208A      2.193126   209A      2.217146   210A      2.249906  
     211A      2.258382   212A      2.320215   213A      2.368359  
     214A      2.370874   215A      2.376427   216A      2.383435  
     217A      2.429028   218A      2.442917   219A      2.446203  
     220A      2.458208   221A      2.464369   222A      2.473631  
     223A      2.498678   224A      2.506479   225A      2.520203  
     226A      2.522173   227A      2.549128   228A      2.583313  
     229A      2.585323   230A      2.612315   231A      2.614973  
     232A      2.641889   233A      2.643211   234A      2.677903  
     235A      2.699442   236A      2.724190   237A      2.729114  
     238A      2.799040   239A      2.799280   240A      2.825872  
     241A      2.860561   242A      2.890955   243A      2.896653  
     244A      2.927262   245A      2.952317   246A      2.957429  
     247A      2.977710   248A      3.005755   249A      3.006372  
     250A      3.025974   251A      3.054732   252A      3.088930  
     253A      3.141435   254A      3.145481   255A      3.157848  
     256A      3.234592   257A      3.239944   258A      3.272465  
     259A      3.300525   260A      3.352727   261A      3.373029  
     262A      3.395896   263A      3.426557   264A      3.441062  
     265A      3.501436   266A      3.510302   267A      3.522729  
     268A      3.557184   269A      3.602780   270A      3.634738  
     271A      3.696354   272A      3.739655   273A      3.752673  
     274A      3.776849   275A      3.783667   276A      3.838722  
     277A      3.880491   278A      3.882232   279A      3.898354  
     280A      3.916630   281A      3.988330   282A      4.006044  
     283A      4.006590   284A      4.068233   285A      4.108251  
     286A      4.118035   287A      4.142892   288A      4.176905  
     289A      4.194352   290A      4.195413   291A      4.263652  
     292A      4.289576   293A      4.296416   294A      4.319447  
     295A      4.341919   296A      4.352668   297A      4.368013  
     298A      4.388461   299A      4.394813   300A      4.444304  
     301A      4.463978   302A      4.481923   303A      4.507055  
     304A      4.542048   305A      4.548559   306A      4.555382  
     307A      4.581470   308A      4.609546   309A      4.620797  
     310A      4.720000   311A      4.722748   312A      4.748656  
     313A      4.759198   314A      4.813231   315A      4.846184  
     316A      4.861946   317A      4.879232   318A      4.898200  
     319A      4.899462   320A      4.925401   321A      4.951566  
     322A      4.992149   323A      5.011042   324A      5.032244  
     325A      5.055375   326A      5.061549   327A      5.109300  
     328A      5.117543   329A      5.175506   330A      5.179392  
     331A      5.253122   332A      5.264079   333A      5.291875  
     334A      5.330841   335A      5.341863   336A      5.347503  
     337A      5.374226   338A      5.378356   339A      5.426584  
     340A      5.469066   341A      5.484724   342A      5.511491  
     343A      5.521320   344A      5.567233   345A      5.634844  
     346A      5.642779   347A      5.665523   348A      5.711162  
     349A      5.716241   350A      5.778987   351A      5.825087  
     352A      5.834745   353A      5.872443   354A      5.898513  
     355A      5.971955   356A      5.995446   357A      6.011682  
     358A      6.060321   359A      6.075851   360A      6.126009  
     361A      6.162913   362A      6.209217   363A      6.245764  
     364A      6.319403   365A      6.349763   366A      6.368437  
     367A      6.522621   368A      6.556190   369A      6.565168  
     370A      6.578890   371A      6.748206   372A      6.822699  
     373A      6.845734   374A      6.871834   375A      6.949406  
     376A      6.977393   377A      7.017377   378A      7.060665  
     379A      7.104618   380A      7.116540   381A      7.194026  
     382A      7.223644   383A      7.260286   384A      7.333570  
     385A      7.391253   386A      7.394356   387A      7.471427  
     388A      7.505537   389A      7.530100   390A      7.653781  
     391A      7.665174   392A      7.711120   393A      7.764194  
     394A      7.816552   395A      7.844567   396A      7.860151  
     397A      7.933563   398A      8.053768   399A      8.071177  
     400A      8.279770   401A      8.295861   402A      8.529531  
     403A      8.530368   404A      8.807847   405A      9.048471  
     406A      9.114007   407A      9.400048   408A      9.963747  
     409A     17.020587   410A     17.702740   411A     18.504895  
     412A     19.403157   413A     20.411201   414A     25.682701  

    Final Occupation by Irrep:
              A 
    DOCC [    24 ]

  @DF-RHF Final Energy:  -337.71717998609660

   => Energetics <=

    Nuclear Repulsion Energy =            261.3648436475092467
    One-Electron Energy =                -980.6283436510816500
    Two-Electron Energy =                 381.5463200174758072
    Total Energy =                       -337.7171799860965962

Computation Completed


Properties will be evaluated at   0.000000,   0.000000,   0.000000 [a0]

Properties computed using the SCF density matrix

  Nuclear Dipole Moment: [e a0]
     X:     3.0808      Y:    -0.1161      Z:     0.0000

  Electronic Dipole Moment: [e a0]
     X:    -1.7647      Y:     0.1109      Z:    -0.0000

  Dipole Moment: [e a0]
     X:     1.3161      Y:    -0.0051      Z:     0.0000     Total:     1.3161

  Dipole Moment: [D]
     X:     3.3452      Y:    -0.0130      Z:     0.0000     Total:     3.3452


*** tstop() called on node54.bme.utexas.edu at Mon Sep  9 19:44:45 2019
Module time:
	user time   =      64.99 seconds =       1.08 minutes
	system time =       1.28 seconds =       0.02 minutes
	total time  =         18 seconds =       0.30 minutes
Total time:
	user time   =      64.99 seconds =       1.08 minutes
	system time =       1.28 seconds =       0.02 minutes
	total time  =         18 seconds =       0.30 minutes

  //>>>>>>>>>>>>>>>>>>>>>>>>>>>>>>>>>>>//
  //            Monomer A HF           //
  //<<<<<<<<<<<<<<<<<<<<<<<<<<<<<<<<<<<//


*** tstart() called on node54.bme.utexas.edu
*** at Mon Sep  9 19:44:45 2019

   => Loading Basis Set <=

    Name: AUG-CC-PVTZ
    Role: ORBITAL
    Keyword: BASIS
    atoms 1, 6              entry C          line   235 file /home/xy3866/psi4conda/share/psi4/basis/aug-cc-pvtz.gbs 
    atoms 2, 5, 7, 9, 11-12 entry H          line    36 file /home/xy3866/psi4conda/share/psi4/basis/aug-cc-pvtz.gbs 
    atoms 3-4               entry O          line   327 file /home/xy3866/psi4conda/share/psi4/basis/aug-cc-pvtz.gbs 
    atoms 8, 10             entry N          line   281 file /home/xy3866/psi4conda/share/psi4/basis/aug-cc-pvtz.gbs 


         ---------------------------------------------------------
                                   SCF
               by Justin Turney, Rob Parrish, Andy Simmonett
                          and Daniel G. A. Smith
                              RHF Reference
                        4 Threads,  30517 MiB Core
         ---------------------------------------------------------

  ==> Geometry <==

    Molecular point group: c1
    Full point group: C1

    Geometry (in Angstrom), charge = 0, multiplicity = 1:

       Center              X                  Y                   Z               Mass       
    ------------   -----------------  -----------------  -----------------  -----------------
         C           -1.537042336838     0.140600182369    -0.000001449450    12.000000000000
         H           -2.631527336838     0.142320182369    -0.000003449450     1.007825032230
         O           -0.888633336838     1.172607182369    -0.000001449450    15.994914619570
         O           -1.069425336838    -1.086451817631     0.000002550550    15.994914619570
         H           -0.050487336838    -1.085319817631     0.000009550550     1.007825032230
      Gh(C)           1.592154863162    -0.171300917631    -0.000002549450    12.000000000000
      Gh(H)           2.673970863162    -0.293525917631    -0.000004649450     1.007825032230
      Gh(N)           0.774363863162    -1.168667917631    -0.000000649450    14.003074004430
      Gh(H)           1.284958863162    -2.042172917631    -0.000000649450     1.007825032230
      Gh(N)           1.177304863162     1.105523082369     0.000002350550    14.003074004430
      Gh(H)           0.181287863162     1.304056082369     0.000001350550     1.007825032230
      Gh(H)           1.844224863162     1.850199082369     0.000004350550     1.007825032230

  Running in c1 symmetry.

  Rotational constants: A =      0.19088  B =      0.12317  C =      0.07486 [cm^-1]
  Rotational constants: A =   5722.42571  B =   3692.68903  C =   2244.38461 [MHz]
  Nuclear repulsion =   69.995387312911134

  Charge       = 0
  Multiplicity = 1
  Electrons    = 24
  Nalpha       = 12
  Nbeta        = 12

  ==> Algorithm <==

  SCF Algorithm Type is DF.
  DIIS enabled.
  MOM disabled.
  Fractional occupation disabled.
  Guess Type is SAD.
  Energy threshold   = 1.00e-08
  Density threshold  = 1.00e-08
  Integral threshold = 0.00e+00

  ==> Primary Basis <==

  Basis Set: AUG-CC-PVTZ
    Blend: AUG-CC-PVTZ
    Number of shells: 138
    Number of basis function: 414
    Number of Cartesian functions: 480
    Spherical Harmonics?: true
    Max angular momentum: 3

   => Loading Basis Set <=

    Name: (AUG-CC-PVTZ AUX)
    Role: JKFIT
    Keyword: DF_BASIS_SCF
    atoms 1, 6              entry C          line   162 file /home/xy3866/psi4conda/share/psi4/basis/aug-cc-pvtz-jkfit.gbs 
    atoms 2, 5, 7, 9, 11-12 entry H          line    70 file /home/xy3866/psi4conda/share/psi4/basis/aug-cc-pvtz-jkfit.gbs 
    atoms 3-4               entry O          line   286 file /home/xy3866/psi4conda/share/psi4/basis/aug-cc-pvtz-jkfit.gbs 
    atoms 8, 10             entry N          line   224 file /home/xy3866/psi4conda/share/psi4/basis/aug-cc-pvtz-jkfit.gbs 

  ==> Pre-Iterations <==

   -------------------------------------------------------
    Irrep   Nso     Nmo     Nalpha   Nbeta   Ndocc  Nsocc
   -------------------------------------------------------
     A        414     414       0       0       0       0
   -------------------------------------------------------
    Total     414     414      12      12      12       0
   -------------------------------------------------------

  ==> Integral Setup <==

  ==> DiskDFJK: Density-Fitted J/K Matrices <==

    J tasked:                  Yes
    K tasked:                  Yes
    wK tasked:                  No
    OpenMP threads:              4
    Integrals threads:           4
    Memory [MiB]:            22888
    Algorithm:                Core
    Integral Cache:           LOAD
    Schwarz Cutoff:          1E-12
    Fitting Condition:       1E-10

   => Auxiliary Basis Set <=

  Basis Set: (AUG-CC-PVTZ AUX)
    Blend: AUG-CC-PVTZ-JKFIT
    Number of shells: 264
    Number of basis function: 900
    Number of Cartesian functions: 1116
    Spherical Harmonics?: true
    Max angular momentum: 4

  Minimum eigenvalue in the overlap matrix is 9.4969823072E-06.
  Using Symmetric Orthogonalization.

  SCF Guess: Superposition of Atomic Densities via on-the-fly atomic UHF.

  ==> Iterations <==

                           Total Energy        Delta E     RMS |[F,P]|

   @DF-RHF iter SAD:  -187.97904416299150   -1.87979e+02   0.00000e+00 
   @DF-RHF iter   1:  -188.73138076236390   -7.52337e-01   1.26160e-03 DIIS
   @DF-RHF iter   2:  -188.79407950454336   -6.26987e-02   8.97791e-04 DIIS
   @DF-RHF iter   3:  -188.83746544066088   -4.33859e-02   1.07190e-04 DIIS
   @DF-RHF iter   4:  -188.83861269753615   -1.14726e-03   5.67380e-05 DIIS
   @DF-RHF iter   5:  -188.83890265872145   -2.89961e-04   1.37257e-05 DIIS
   @DF-RHF iter   6:  -188.83894490285226   -4.22441e-05   5.91530e-06 DIIS
   @DF-RHF iter   7:  -188.83895429105687   -9.38820e-06   2.13711e-06 DIIS
   @DF-RHF iter   8:  -188.83895539928693   -1.10823e-06   6.72435e-07 DIIS
   @DF-RHF iter   9:  -188.83895551114801   -1.11861e-07   1.93918e-07 DIIS
   @DF-RHF iter  10:  -188.83895552018413   -9.03611e-09   4.33557e-08 DIIS
   @DF-RHF iter  11:  -188.83895552057490   -3.90770e-10   7.48955e-09 DIIS
  Energy and wave function converged.


  ==> Post-Iterations <==

    Orbital Energies [Eh]
    ---------------------

    Doubly Occupied:                                                      

       1A    -20.639589     2A    -20.560400     3A    -11.395771  
       4A     -1.478559     5A     -1.367845     6A     -0.898027  
       7A     -0.730420     8A     -0.708472     9A     -0.643526  
      10A     -0.593065    11A     -0.490031    12A     -0.469533  

    Virtual:                                                              

      13A      0.020579    14A      0.033161    15A      0.040085  
      16A      0.053310    17A      0.064948    18A      0.066978  
      19A      0.070550    20A      0.085432    21A      0.086260  
      22A      0.111381    23A      0.115555    24A      0.122569  
      25A      0.128637    26A      0.131654    27A      0.143054  
      28A      0.143655    29A      0.150785    30A      0.162198  
      31A      0.178920    32A      0.182828    33A      0.196752  
      34A      0.197820    35A      0.198559    36A      0.224266  
      37A      0.231364    38A      0.249498    39A      0.254909  
      40A      0.262653    41A      0.269718    42A      0.278501  
      43A      0.286172    44A      0.294144    45A      0.303661  
      46A      0.319732    47A      0.322740    48A      0.333158  
      49A      0.337443    50A      0.340754    51A      0.348976  
      52A      0.356134    53A      0.363570    54A      0.368188  
      55A      0.370913    56A      0.378193    57A      0.392432  
      58A      0.401094    59A      0.415498    60A      0.421409  
      61A      0.427522    62A      0.443973    63A      0.455401  
      64A      0.461809    65A      0.467179    66A      0.486246  
      67A      0.488523    68A      0.496906    69A      0.521477  
      70A      0.529263    71A      0.536411    72A      0.551523  
      73A      0.558102    74A      0.570567    75A      0.573260  
      76A      0.585718    77A      0.595306    78A      0.599226  
      79A      0.631509    80A      0.642735    81A      0.676909  
      82A      0.678463    83A      0.695677    84A      0.702750  
      85A      0.724964    86A      0.726225    87A      0.738874  
      88A      0.742827    89A      0.754694    90A      0.773027  
      91A      0.785358    92A      0.787733    93A      0.793424  
      94A      0.800819    95A      0.812866    96A      0.815343  
      97A      0.830114    98A      0.852895    99A      0.862856  
     100A      0.874206   101A      0.884686   102A      0.886204  
     103A      0.895941   104A      0.896074   105A      0.917521  
     106A      0.932187   107A      0.942406   108A      0.944772  
     109A      0.958247   110A      0.985949   111A      0.995105  
     112A      0.996038   113A      1.001391   114A      1.009344  
     115A      1.023505   116A      1.033357   117A      1.033778  
     118A      1.050718   119A      1.070826   120A      1.077958  
     121A      1.092658   122A      1.099656   123A      1.104767  
     124A      1.113760   125A      1.120366   126A      1.131721  
     127A      1.142949   128A      1.167095   129A      1.197290  
     130A      1.204344   131A      1.204531   132A      1.214260  
     133A      1.236281   134A      1.239735   135A      1.269439  
     136A      1.270063   137A      1.287404   138A      1.298912  
     139A      1.319622   140A      1.336554   141A      1.343996  
     142A      1.347422   143A      1.382558   144A      1.382803  
     145A      1.396309   146A      1.434362   147A      1.445788  
     148A      1.451286   149A      1.465140   150A      1.474008  
     151A      1.492652   152A      1.496848   153A      1.527355  
     154A      1.543601   155A      1.548738   156A      1.551708  
     157A      1.560381   158A      1.565293   159A      1.572618  
     160A      1.605225   161A      1.610964   162A      1.622324  
     163A      1.640879   164A      1.659346   165A      1.670370  
     166A      1.684518   167A      1.705377   168A      1.714596  
     169A      1.720372   170A      1.722326   171A      1.752081  
     172A      1.755902   173A      1.758910   174A      1.768389  
     175A      1.784643   176A      1.800325   177A      1.809925  
     178A      1.835160   179A      1.870969   180A      1.880752  
     181A      1.884525   182A      1.908424   183A      1.925196  
     184A      1.942039   185A      1.954586   186A      2.008039  
     187A      2.029554   188A      2.048590   189A      2.049832  
     190A      2.095990   191A      2.122419   192A      2.142103  
     193A      2.198376   194A      2.218058   195A      2.230983  
     196A      2.295622   197A      2.295785   198A      2.308698  
     199A      2.326294   200A      2.363149   201A      2.384383  
     202A      2.396853   203A      2.428463   204A      2.455960  
     205A      2.471579   206A      2.481786   207A      2.494415  
     208A      2.503288   209A      2.536575   210A      2.550708  
     211A      2.557389   212A      2.577546   213A      2.602498  
     214A      2.614485   215A      2.619154   216A      2.631245  
     217A      2.651685   218A      2.674625   219A      2.690175  
     220A      2.698371   221A      2.716113   222A      2.756477  
     223A      2.769113   224A      2.801486   225A      2.816911  
     226A      2.830423   227A      2.868319   228A      2.889454  
     229A      2.903877   230A      2.914885   231A      2.929322  
     232A      2.948488   233A      2.975569   234A      2.984655  
     235A      2.990687   236A      3.025429   237A      3.032913  
     238A      3.048477   239A      3.073620   240A      3.100792  
     241A      3.115849   242A      3.158897   243A      3.176822  
     244A      3.191966   245A      3.226563   246A      3.244569  
     247A      3.264747   248A      3.267145   249A      3.306895  
     250A      3.392263   251A      3.393433   252A      3.421304  
     253A      3.478925   254A      3.496119   255A      3.530109  
     256A      3.566878   257A      3.601697   258A      3.608230  
     259A      3.707072   260A      3.711089   261A      3.754150  
     262A      3.772851   263A      3.815573   264A      3.853905  
     265A      3.883459   266A      3.938793   267A      4.017265  
     268A      4.085847   269A      4.098318   270A      4.108280  
     271A      4.117417   272A      4.123197   273A      4.218764  
     274A      4.236193   275A      4.286173   276A      4.306181  
     277A      4.364394   278A      4.404411   279A      4.426289  
     280A      4.444529   281A      4.472706   282A      4.503700  
     283A      4.530198   284A      4.579018   285A      4.605926  
     286A      4.669023   287A      4.680458   288A      4.774270  
     289A      4.784416   290A      4.814667   291A      4.830714  
     292A      4.862055   293A      4.871422   294A      4.896205  
     295A      4.907064   296A      4.931561   297A      4.943602  
     298A      4.959270   299A      4.975512   300A      4.996599  
     301A      5.006453   302A      5.022632   303A      5.032793  
     304A      5.066086   305A      5.085208   306A      5.144131  
     307A      5.194436   308A      5.200880   309A      5.207200  
     310A      5.225526   311A      5.258475   312A      5.298354  
     313A      5.308308   314A      5.331800   315A      5.380842  
     316A      5.385215   317A      5.422533   318A      5.455921  
     319A      5.502332   320A      5.529888   321A      5.546920  
     322A      5.616602   323A      5.691894   324A      5.734215  
     325A      5.792279   326A      5.796861   327A      5.810359  
     328A      5.845257   329A      5.869606   330A      5.932050  
     331A      5.995056   332A      5.995066   333A      6.068890  
     334A      6.085786   335A      6.126429   336A      6.204121  
     337A      6.252298   338A      6.343187   339A      6.369407  
     340A      6.401108   341A      6.435802   342A      6.448345  
     343A      6.514196   344A      6.615931   345A      6.629730  
     346A      6.672679   347A      6.675607   348A      6.723370  
     349A      6.770617   350A      6.806181   351A      6.807163  
     352A      6.873260   353A      6.899644   354A      6.906680  
     355A      6.950006   356A      6.961742   357A      7.002921  
     358A      7.014165   359A      7.102586   360A      7.105796  
     361A      7.141611   362A      7.219091   363A      7.243470  
     364A      7.269717   365A      7.342390   366A      7.372340  
     367A      7.403016   368A      7.435268   369A      7.473357  
     370A      7.496024   371A      7.538859   372A      7.577969  
     373A      7.589397   374A      7.690456   375A      7.723245  
     376A      7.740100   377A      7.790799   378A      7.802322  
     379A      7.897270   380A      7.908381   381A      7.975036  
     382A      8.006483   383A      8.187047   384A      8.199715  
     385A      8.270114   386A      8.277689   387A      8.316571  
     388A      8.432192   389A      8.507461   390A      8.619625  
     391A      8.653211   392A      9.040927   393A      9.083321  
     394A      9.241441   395A      9.345200   396A      9.583153  
     397A      9.707285   398A      9.826155   399A      9.906376  
     400A      9.940621   401A     10.122670   402A     10.944460  
     403A     11.379873   404A     11.624113   405A     11.993035  
     406A     12.703609   407A     13.388356   408A     15.225620  
     409A     17.460942   410A     18.083653   411A     19.570434  
     412A     53.536481   413A     64.553567   414A     74.788056  

    Final Occupation by Irrep:
              A 
    DOCC [    12 ]

  @DF-RHF Final Energy:  -188.83895552057490

   => Energetics <=

    Nuclear Repulsion Energy =             69.9953873129111344
    One-Electron Energy =                -397.7182069115412446
    Two-Electron Energy =                 138.8838640780552112
    Total Energy =                       -188.8389555205748991

Computation Completed


Properties will be evaluated at   0.000000,   0.000000,   0.000000 [a0]

Properties computed using the SCF density matrix

  Nuclear Dipole Moment: [e a0]
     X:   -52.0974      Y:     1.1146      Z:     0.0000

  Electronic Dipole Moment: [e a0]
     X:    51.9899      Y:    -1.9456      Z:    -0.0000

  Dipole Moment: [e a0]
     X:    -0.1075      Y:    -0.8310      Z:     0.0000     Total:     0.8379

  Dipole Moment: [D]
     X:    -0.2731      Y:    -2.1121      Z:     0.0000     Total:     2.1297


*** tstop() called on node54.bme.utexas.edu at Mon Sep  9 19:44:55 2019
Module time:
	user time   =      34.73 seconds =       0.58 minutes
	system time =       0.71 seconds =       0.01 minutes
	total time  =         10 seconds =       0.17 minutes
Total time:
	user time   =      99.75 seconds =       1.66 minutes
	system time =       1.99 seconds =       0.03 minutes
	total time  =         28 seconds =       0.47 minutes

  //>>>>>>>>>>>>>>>>>>>>>>>>>>>>>>>>>>>//
  //            Monomer B HF           //
  //<<<<<<<<<<<<<<<<<<<<<<<<<<<<<<<<<<<//


*** tstart() called on node54.bme.utexas.edu
*** at Mon Sep  9 19:44:55 2019

   => Loading Basis Set <=

    Name: AUG-CC-PVTZ
    Role: ORBITAL
    Keyword: BASIS
    atoms 1, 6              entry C          line   235 file /home/xy3866/psi4conda/share/psi4/basis/aug-cc-pvtz.gbs 
    atoms 2, 5, 7, 9, 11-12 entry H          line    36 file /home/xy3866/psi4conda/share/psi4/basis/aug-cc-pvtz.gbs 
    atoms 3-4               entry O          line   327 file /home/xy3866/psi4conda/share/psi4/basis/aug-cc-pvtz.gbs 
    atoms 8, 10             entry N          line   281 file /home/xy3866/psi4conda/share/psi4/basis/aug-cc-pvtz.gbs 


         ---------------------------------------------------------
                                   SCF
               by Justin Turney, Rob Parrish, Andy Simmonett
                          and Daniel G. A. Smith
                              RHF Reference
                        4 Threads,  30517 MiB Core
         ---------------------------------------------------------

  ==> Geometry <==

    Molecular point group: c1
    Full point group: C1

    Geometry (in Angstrom), charge = 0, multiplicity = 1:

       Center              X                  Y                   Z               Mass       
    ------------   -----------------  -----------------  -----------------  -----------------
      Gh(C)          -1.537042336838     0.140600182369    -0.000001449450    12.000000000000
      Gh(H)          -2.631527336838     0.142320182369    -0.000003449450     1.007825032230
      Gh(O)          -0.888633336838     1.172607182369    -0.000001449450    15.994914619570
      Gh(O)          -1.069425336838    -1.086451817631     0.000002550550    15.994914619570
      Gh(H)          -0.050487336838    -1.085319817631     0.000009550550     1.007825032230
         C            1.592154863162    -0.171300917631    -0.000002549450    12.000000000000
         H            2.673970863162    -0.293525917631    -0.000004649450     1.007825032230
         N            0.774363863162    -1.168667917631    -0.000000649450    14.003074004430
         H            1.284958863162    -2.042172917631    -0.000000649450     1.007825032230
         N            1.177304863162     1.105523082369     0.000002350550    14.003074004430
         H            0.181287863162     1.304056082369     0.000001350550     1.007825032230
         H            1.844224863162     1.850199082369     0.000004350550     1.007825032230

  Running in c1 symmetry.

  Rotational constants: A =      0.19088  B =      0.12317  C =      0.07486 [cm^-1]
  Rotational constants: A =   5722.42571  B =   3692.68903  C =   2244.38461 [MHz]
  Nuclear repulsion =   72.334192798720579

  Charge       = 0
  Multiplicity = 1
  Electrons    = 24
  Nalpha       = 12
  Nbeta        = 12

  ==> Algorithm <==

  SCF Algorithm Type is DF.
  DIIS enabled.
  MOM disabled.
  Fractional occupation disabled.
  Guess Type is SAD.
  Energy threshold   = 1.00e-08
  Density threshold  = 1.00e-08
  Integral threshold = 0.00e+00

  ==> Primary Basis <==

  Basis Set: AUG-CC-PVTZ
    Blend: AUG-CC-PVTZ
    Number of shells: 138
    Number of basis function: 414
    Number of Cartesian functions: 480
    Spherical Harmonics?: true
    Max angular momentum: 3

   => Loading Basis Set <=

    Name: (AUG-CC-PVTZ AUX)
    Role: JKFIT
    Keyword: DF_BASIS_SCF
    atoms 1, 6              entry C          line   162 file /home/xy3866/psi4conda/share/psi4/basis/aug-cc-pvtz-jkfit.gbs 
    atoms 2, 5, 7, 9, 11-12 entry H          line    70 file /home/xy3866/psi4conda/share/psi4/basis/aug-cc-pvtz-jkfit.gbs 
    atoms 3-4               entry O          line   286 file /home/xy3866/psi4conda/share/psi4/basis/aug-cc-pvtz-jkfit.gbs 
    atoms 8, 10             entry N          line   224 file /home/xy3866/psi4conda/share/psi4/basis/aug-cc-pvtz-jkfit.gbs 

  ==> Pre-Iterations <==

   -------------------------------------------------------
    Irrep   Nso     Nmo     Nalpha   Nbeta   Ndocc  Nsocc
   -------------------------------------------------------
     A        414     414       0       0       0       0
   -------------------------------------------------------
    Total     414     414      12      12      12       0
   -------------------------------------------------------

  ==> Integral Setup <==

  ==> DiskDFJK: Density-Fitted J/K Matrices <==

    J tasked:                  Yes
    K tasked:                  Yes
    wK tasked:                  No
    OpenMP threads:              4
    Integrals threads:           4
    Memory [MiB]:            22888
    Algorithm:                Core
    Integral Cache:           LOAD
    Schwarz Cutoff:          1E-12
    Fitting Condition:       1E-10

   => Auxiliary Basis Set <=

  Basis Set: (AUG-CC-PVTZ AUX)
    Blend: AUG-CC-PVTZ-JKFIT
    Number of shells: 264
    Number of basis function: 900
    Number of Cartesian functions: 1116
    Spherical Harmonics?: true
    Max angular momentum: 4

  Minimum eigenvalue in the overlap matrix is 9.4969823072E-06.
  Using Symmetric Orthogonalization.

  SCF Guess: Superposition of Atomic Densities via on-the-fly atomic UHF.

  ==> Iterations <==

                           Total Energy        Delta E     RMS |[F,P]|

   @DF-RHF iter SAD:  -148.39929991364411   -1.48399e+02   0.00000e+00 
   @DF-RHF iter   1:  -148.99823657844536   -5.98937e-01   1.32828e-03 DIIS
   @DF-RHF iter   2:  -149.10035106498123   -1.02114e-01   7.81921e-04 DIIS
   @DF-RHF iter   3:  -149.14218858717629   -4.18375e-02   1.09359e-04 DIIS
   @DF-RHF iter   4:  -149.14359954912584   -1.41096e-03   5.40650e-05 DIIS
   @DF-RHF iter   5:  -149.14387649987756   -2.76951e-04   9.81040e-06 DIIS
   @DF-RHF iter   6:  -149.14390494457982   -2.84447e-05   4.60438e-06 DIIS
   @DF-RHF iter   7:  -149.14390959608201   -4.65150e-06   1.85521e-06 DIIS
   @DF-RHF iter   8:  -149.14391051418198   -9.18100e-07   5.51298e-07 DIIS
   @DF-RHF iter   9:  -149.14391059965180   -8.54698e-08   1.68816e-07 DIIS
   @DF-RHF iter  10:  -149.14391060715653   -7.50472e-09   4.20862e-08 DIIS
   @DF-RHF iter  11:  -149.14391060762998   -4.73449e-10   7.97736e-09 DIIS
  Energy and wave function converged.


  ==> Post-Iterations <==

    Orbital Energies [Eh]
    ---------------------

    Doubly Occupied:                                                      

       1A    -15.580643     2A    -15.518131     3A    -11.313901  
       4A     -1.260932     5A     -1.136061     6A     -0.830597  
       7A     -0.749101     8A     -0.640555     9A     -0.618098  
      10A     -0.530862    11A     -0.417505    12A     -0.358863  

    Virtual:                                                              

      13A      0.022745    14A      0.033016    15A      0.038180  
      16A      0.053845    17A      0.060792    18A      0.072909  
      19A      0.074678    20A      0.090661    21A      0.103403  
      22A      0.115199    23A      0.119298    24A      0.121385  
      25A      0.128750    26A      0.136464    27A      0.145921  
      28A      0.157250    29A      0.159196    30A      0.162329  
      31A      0.173585    32A      0.189816    33A      0.191600  
      34A      0.208899    35A      0.211123    36A      0.229710  
      37A      0.235070    38A      0.237196    39A      0.262462  
      40A      0.265047    41A      0.269000    42A      0.283787  
      43A      0.292666    44A      0.304678    45A      0.309335  
      46A      0.321627    47A      0.323610    48A      0.333318  
      49A      0.342035    50A      0.343674    51A      0.344980  
      52A      0.350595    53A      0.361212    54A      0.369344  
      55A      0.380664    56A      0.387422    57A      0.415449  
      58A      0.422890    59A      0.424475    60A      0.433404  
      61A      0.434837    62A      0.441391    63A      0.458292  
      64A      0.464423    65A      0.483098    66A      0.487894  
      67A      0.492059    68A      0.510076    69A      0.516958  
      70A      0.534780    71A      0.540943    72A      0.546645  
      73A      0.554289    74A      0.565602    75A      0.584248  
      76A      0.589192    77A      0.605336    78A      0.605769  
      79A      0.641522    80A      0.653337    81A      0.656654  
      82A      0.668262    83A      0.670164    84A      0.691328  
      85A      0.706250    86A      0.714335    87A      0.719383  
      88A      0.727110    89A      0.731795    90A      0.758242  
      91A      0.778120    92A      0.787489    93A      0.806632  
      94A      0.815984    95A      0.826767    96A      0.831720  
      97A      0.844685    98A      0.873015    99A      0.878012  
     100A      0.893044   101A      0.904618   102A      0.908117  
     103A      0.935902   104A      0.941020   105A      0.943694  
     106A      0.955841   107A      0.959582   108A      0.971412  
     109A      0.974487   110A      0.986586   111A      0.987118  
     112A      1.007962   113A      1.014905   114A      1.018026  
     115A      1.027874   116A      1.033728   117A      1.040389  
     118A      1.044224   119A      1.059251   120A      1.070281  
     121A      1.073598   122A      1.093020   123A      1.115031  
     124A      1.116999   125A      1.122139   126A      1.143959  
     127A      1.158321   128A      1.170757   129A      1.190896  
     130A      1.191580   131A      1.199789   132A      1.206469  
     133A      1.208939   134A      1.229709   135A      1.233055  
     136A      1.239835   137A      1.256820   138A      1.277475  
     139A      1.295146   140A      1.300684   141A      1.307348  
     142A      1.314824   143A      1.346577   144A      1.360908  
     145A      1.374697   146A      1.382550   147A      1.394847  
     148A      1.398104   149A      1.422383   150A      1.426373  
     151A      1.442724   152A      1.459047   153A      1.474044  
     154A      1.484633   155A      1.490710   156A      1.500896  
     157A      1.528383   158A      1.562172   159A      1.591040  
     160A      1.591958   161A      1.619731   162A      1.632777  
     163A      1.648905   164A      1.668854   165A      1.683571  
     166A      1.709326   167A      1.729823   168A      1.749109  
     169A      1.758318   170A      1.773003   171A      1.779286  
     172A      1.786147   173A      1.817022   174A      1.835910  
     175A      1.841161   176A      1.880697   177A      1.905877  
     178A      1.913574   179A      1.923601   180A      1.937010  
     181A      1.939462   182A      1.958619   183A      1.973342  
     184A      1.979479   185A      2.021919   186A      2.039965  
     187A      2.054096   188A      2.058189   189A      2.086437  
     190A      2.116289   191A      2.123352   192A      2.148801  
     193A      2.160880   194A      2.171367   195A      2.201225  
     196A      2.221361   197A      2.252170   198A      2.252781  
     199A      2.262750   200A      2.306338   201A      2.327237  
     202A      2.375962   203A      2.405405   204A      2.408734  
     205A      2.414363   206A      2.429051   207A      2.464004  
     208A      2.483995   209A      2.490469   210A      2.515611  
     211A      2.547042   212A      2.555583   213A      2.586187  
     214A      2.591974   215A      2.595374   216A      2.607562  
     217A      2.650671   218A      2.669877   219A      2.673792  
     220A      2.707331   221A      2.720749   222A      2.744015  
     223A      2.749159   224A      2.763936   225A      2.819239  
     226A      2.824192   227A      2.864595   228A      2.864812  
     229A      2.895689   230A      2.935588   231A      2.936745  
     232A      2.973239   233A      3.006159   234A      3.043158  
     235A      3.080688   236A      3.103078   237A      3.138777  
     238A      3.148765   239A      3.188593   240A      3.189266  
     241A      3.224665   242A      3.240510   243A      3.277122  
     244A      3.330223   245A      3.412876   246A      3.422675  
     247A      3.432373   248A      3.475706   249A      3.498257  
     250A      3.502330   251A      3.530461   252A      3.536999  
     253A      3.618545   254A      3.636163   255A      3.647377  
     256A      3.672923   257A      3.687894   258A      3.734227  
     259A      3.778428   260A      3.816062   261A      3.818111  
     262A      3.839190   263A      3.862787   264A      3.917267  
     265A      3.939680   266A      3.971733   267A      3.996286  
     268A      4.033498   269A      4.069932   270A      4.081244  
     271A      4.130853   272A      4.136383   273A      4.164292  
     274A      4.169221   275A      4.171935   276A      4.258516  
     277A      4.262514   278A      4.303088   279A      4.316211  
     280A      4.352053   281A      4.375518   282A      4.375905  
     283A      4.438748   284A      4.439900   285A      4.492615  
     286A      4.503683   287A      4.555828   288A      4.560048  
     289A      4.575987   290A      4.597426   291A      4.627704  
     292A      4.656030   293A      4.672637   294A      4.681020  
     295A      4.718692   296A      4.747208   297A      4.777871  
     298A      4.786097   299A      4.863967   300A      4.882697  
     301A      4.916550   302A      4.925738   303A      4.941917  
     304A      4.967341   305A      4.994345   306A      5.006406  
     307A      5.020836   308A      5.029959   309A      5.070140  
     310A      5.097603   311A      5.135034   312A      5.151518  
     313A      5.189726   314A      5.231697   315A      5.239022  
     316A      5.256818   317A      5.317456   318A      5.348986  
     319A      5.372474   320A      5.376192   321A      5.437887  
     322A      5.447087   323A      5.457445   324A      5.472104  
     325A      5.512398   326A      5.515332   327A      5.571595  
     328A      5.589175   329A      5.615453   330A      5.629611  
     331A      5.655217   332A      5.693953   333A      5.707234  
     334A      5.718870   335A      5.785130   336A      5.786042  
     337A      5.822177   338A      5.860363   339A      5.872942  
     340A      5.880992   341A      5.978851   342A      6.021596  
     343A      6.065588   344A      6.096409   345A      6.120916  
     346A      6.158637   347A      6.204946   348A      6.260045  
     349A      6.300557   350A      6.342898   351A      6.444158  
     352A      6.478043   353A      6.527126   354A      6.615062  
     355A      6.685940   356A      6.703006   357A      6.709436  
     358A      6.799144   359A      6.919790   360A      7.012449  
     361A      7.095612   362A      7.134591   363A      7.285847  
     364A      7.427797   365A      7.458015   366A      7.553725  
     367A      7.650997   368A      7.665085   369A      7.747581  
     370A      7.760454   371A      7.831381   372A      7.921532  
     373A      7.937523   374A      7.939935   375A      8.084544  
     376A      8.121361   377A      8.142385   378A      8.274546  
     379A      8.290947   380A      8.414341   381A      8.465080  
     382A      8.559825   383A      8.630699   384A      8.999253  
     385A      9.091364   386A      9.163859   387A      9.577172  
     388A      9.631793   389A      9.771365   390A      9.911555  
     391A      9.931297   392A     10.080947   393A     10.160132  
     394A     10.345767   395A     10.579914   396A     10.606730  
     397A     10.913335   398A     11.018013   399A     11.254988  
     400A     11.672868   401A     12.013905   402A     12.167692  
     403A     12.953888   404A     13.146496   405A     13.552219  
     406A     13.975406   407A     14.814410   408A     15.082661  
     409A     18.503695   410A     20.159467   411A     25.760877  
     412A     53.776621   413A     67.934111   414A     70.945677  

    Final Occupation by Irrep:
              A 
    DOCC [    12 ]

  @DF-RHF Final Energy:  -149.14391060762998

   => Energetics <=

    Nuclear Repulsion Energy =             72.3341927987205793
    One-Electron Energy =                -345.0457096788236981
    Two-Electron Energy =                 123.5676062724731139
    Total Energy =                       -149.1439106076299765

Computation Completed


Properties will be evaluated at   0.000000,   0.000000,   0.000000 [a0]

Properties computed using the SCF density matrix

  Nuclear Dipole Moment: [e a0]
     X:    55.1782      Y:    -1.2307      Z:    -0.0000

  Electronic Dipole Moment: [e a0]
     X:   -54.2652      Y:     2.1203      Z:     0.0000

  Dipole Moment: [e a0]
     X:     0.9130      Y:     0.8896      Z:    -0.0000     Total:     1.2747

  Dipole Moment: [D]
     X:     2.3206      Y:     2.2610      Z:    -0.0000     Total:     3.2400


*** tstop() called on node54.bme.utexas.edu at Mon Sep  9 19:45:04 2019
Module time:
	user time   =      34.46 seconds =       0.57 minutes
	system time =       0.75 seconds =       0.01 minutes
	total time  =          9 seconds =       0.15 minutes
Total time:
	user time   =     134.23 seconds =       2.24 minutes
	system time =       2.74 seconds =       0.05 minutes
	total time  =         37 seconds =       0.62 minutes
  Constructing Basis Sets for SAPT...

   => Loading Basis Set <=

    Name: (AUG-CC-PVTZ AUX)
    Role: RIFIT
    Keyword: DF_BASIS_SAPT
    atoms 1, 6              entry C          line   148 file /home/xy3866/psi4conda/share/psi4/basis/aug-cc-pvtz-ri.gbs 
    atoms 2, 5, 7, 9, 11-12 entry H          line    30 file /home/xy3866/psi4conda/share/psi4/basis/aug-cc-pvtz-ri.gbs 
    atoms 3-4               entry O          line   264 file /home/xy3866/psi4conda/share/psi4/basis/aug-cc-pvtz-ri.gbs 
    atoms 8, 10             entry N          line   206 file /home/xy3866/psi4conda/share/psi4/basis/aug-cc-pvtz-ri.gbs 


  //>>>>>>>>>>>>>>>>>>>>>>>>>>>>>>>>>>>//
  //               SAPT2+              //
  //<<<<<<<<<<<<<<<<<<<<<<<<<<<<<<<<<<<//


*** tstart() called on node54.bme.utexas.edu
*** at Mon Sep  9 19:45:05 2019

        SAPT2+  
    Ed Hohenstein
     6 June 2009

      Orbital Information
  --------------------------
    NSO        =       414
    NMO        =       414
    NRI        =       912
    NOCC A     =        12
    NOCC B     =        12
    FOCC A     =         3
    FOCC B     =         3
    NVIR A     =       402
    NVIR B     =       402

    Estimated memory usage: 1737.6 MB

    Natural Orbital Cutoff:   1.000E-06
    Disp(T3) Truncation:            Yes
    CCD (vv|vv) Truncation:         Yes
    MBPT T2 Truncation:             Yes

    Monomer A: 219 virtual orbitals dropped
    Monomer B: 184 virtual orbitals dropped

    Elst10,r            =    -0.211268779259 [Eh]
    Exch10 (S^2)        =     0.647907418647 [Eh]
    Exch10              =     0.790316463881 [Eh]
    Ind20,r (A<-B)      =    -0.291977129834 [Eh]
    Ind20,r (B<-A)      =    -0.298027086677 [Eh]
    Ind20,r             =    -0.590004216511 [Eh]
    Exch-Ind20,r (A<-B) =     0.160818266121 [Eh]
    Exch-Ind20,r (B<-A) =     0.104211609250 [Eh]
    Exch-Ind20,r        =     0.265029875371 [Eh]
    Disp20              =    -0.115764962208 [Eh]
    Disp20 (NO)         =    -0.108736410456 [Eh]
    Exch-Disp20         =     0.018616437631 [Eh]
    Elst12,r            =    -0.000442254631 [Eh]
    Exch11              =    -0.002179516370 [Eh]
    Exch12              =     0.006051231138 [Eh]
    Ind22               =    -0.046067373280 [Eh]
    Disp21              =     0.021295094099 [Eh]
    Disp22 (SDQ)        =    -0.002553853547 [Eh]

    (i =   1 of   9)         27 seconds
    (i =   2 of   9)         55 seconds
    (i =   3 of   9)         82 seconds
    (i =   4 of   9)        110 seconds
    (i =   5 of   9)        137 seconds
    (i =   6 of   9)        165 seconds
    (i =   7 of   9)        192 seconds
    (i =   8 of   9)        219 seconds
    (i =   9 of   9)        246 seconds

    Disp220 (T)         =    -0.008565948513 [Eh]

    (i =   1 of   9)         31 seconds
    (i =   2 of   9)         62 seconds
    (i =   3 of   9)         93 seconds
    (i =   4 of   9)        125 seconds
    (i =   5 of   9)        156 seconds
    (i =   6 of   9)        187 seconds
    (i =   7 of   9)        219 seconds
    (i =   8 of   9)        250 seconds
    (i =   9 of   9)        281 seconds

    Disp202 (T)         =    -0.007030747181 [Eh]

    Disp22 (T)          =    -0.015596695693 [Eh]

    Est. Disp220 (T)    =    -0.009119638047 [Eh]
    Est. Disp202 (T)    =    -0.007485203698 [Eh]

    Est. Disp22 (T)     =    -0.016604841745 [Eh]

    SAPT Results 
  --------------------------------------------------------------------------------------------------------
    Electrostatics               -211.71103389 [mEh]    -132.85067947 [kcal/mol]    -555.84724290 [kJ/mol]
      Elst10,r                   -211.26877926 [mEh]    -132.57316050 [kcal/mol]    -554.68610353 [kJ/mol]
      Elst12,r                     -0.44225463 [mEh]      -0.27751897 [kcal/mol]      -1.16113937 [kJ/mol]

    Exchange                      794.18817865 [mEh]     498.36060606 [kcal/mol]    2085.14077577 [kJ/mol]
      Exch10                      790.31646388 [mEh]     495.93106837 [kcal/mol]    2074.97559005 [kJ/mol]
      Exch10(S^2)                 647.90741865 [mEh]     406.56804333 [kcal/mol]    1701.08069330 [kJ/mol]
      Exch11(S^2)                  -2.17951637 [mEh]      -1.36766717 [kcal/mol]      -5.72231944 [kJ/mol]
      Exch12(S^2)                   6.05123114 [mEh]       3.79720487 [kcal/mol]      15.88750516 [kJ/mol]

    Induction                    -338.73545317 [mEh]    -212.55970597 [kcal/mol]    -889.34980978 [kJ/mol]
      Ind20,r                    -590.00421651 [mEh]    -370.23323543 [kcal/mol]   -1549.05585704 [kJ/mol]
      Ind22                       -46.06737328 [mEh]     -28.90771317 [kcal/mol]    -120.94987188 [kJ/mol]
      Exch-Ind20,r                265.02987537 [mEh]     166.30875763 [kcal/mol]     695.83584192 [kJ/mol]
      Exch-Ind22                   20.69346262 [mEh]      12.98534384 [kcal/mol]      54.33067862 [kJ/mol]
      delta HF,r (2)               11.61279863 [mEh]       7.28714116 [kcal/mol]      30.48939860 [kJ/mol]

    Dispersion                    -95.01212577 [mEh]     -59.62100904 [kcal/mol]    -249.45430184 [kJ/mol]
      Disp20                     -115.76496221 [mEh]     -72.64361052 [kcal/mol]    -303.94086640 [kJ/mol]
      Disp21                       21.29509410 [mEh]      13.36287329 [kcal/mol]      55.91026186 [kJ/mol]
      Disp22 (SDQ)                 -2.55385355 [mEh]      -1.60256730 [kcal/mol]      -6.70514156 [kJ/mol]
      Disp22 (T)                  -15.59669569 [mEh]      -9.78707431 [kcal/mol]     -40.94911890 [kJ/mol]
      Est. Disp22 (T)             -16.60484174 [mEh]     -10.41969551 [kcal/mol]     -43.59600599 [kJ/mol]
      Exch-Disp20                  18.61643763 [mEh]      11.68199098 [kcal/mol]      48.87745027 [kJ/mol]

  Total HF                        265.68614211 [mEh]     166.72057122 [kcal/mol]     697.55887000 [kJ/mol]
  Total SAPT0                     168.53761753 [mEh]     105.75895169 [kcal/mol]     442.49545386 [kJ/mol]
  Total SAPT2                     146.59316701 [mEh]      91.98860109 [kcal/mol]     384.88030695 [kJ/mol]
  Total SAPT2+                    148.72956581 [mEh]      93.32921158 [kcal/mol]     390.48942125 [kJ/mol]

  Special recipe for scaled SAPT0 (see Manual):
    Electrostatics sSAPT0        -211.26877926 [mEh]    -132.57316050 [kcal/mol]    -554.68610353 [kJ/mol]
    Exchange sSAPT0               790.31646388 [mEh]     495.93106837 [kcal/mol]    2074.97559005 [kJ/mol]
    Induction sSAPT0              -97.37592798 [mEh]     -61.10431732 [kcal/mol]    -255.66046368 [kJ/mol]
    Dispersion sSAPT0             -81.97709262 [mEh]     -51.44140225 [kcal/mol]    -215.23082701 [kJ/mol]
  Total sSAPT0                    399.69466403 [mEh]     250.81218830 [kcal/mol]    1049.39819583 [kJ/mol]
  --------------------------------------------------------------------------------------------------------

*** tstop() called on node54.bme.utexas.edu at Mon Sep  9 19:58:16 2019
Module time:
	user time   =    2876.76 seconds =      47.95 minutes
	system time =      49.23 seconds =       0.82 minutes
	total time  =        791 seconds =      13.18 minutes
Total time:
	user time   =    3011.33 seconds =      50.19 minutes
	system time =      51.99 seconds =       0.87 minutes
	total time  =        829 seconds =      13.82 minutes

    Psi4 stopped on: Monday, 09 September 2019 07:58PM
    Psi4 wall time for execution: 0:13:48.84

*** Psi4 exiting successfully. Buy a developer a beer!
