
    -----------------------------------------------------------------------
          Psi4: An Open-Source Ab Initio Electronic Structure Package
                               Psi4 1.3.2 release

                         Git: Rev {HEAD} ecbda83 


    R. M. Parrish, L. A. Burns, D. G. A. Smith, A. C. Simmonett,
    A. E. DePrince III, E. G. Hohenstein, U. Bozkaya, A. Yu. Sokolov,
    R. Di Remigio, R. M. Richard, J. F. Gonthier, A. M. James,
    H. R. McAlexander, A. Kumar, M. Saitow, X. Wang, B. P. Pritchard,
    P. Verma, H. F. Schaefer III, K. Patkowski, R. A. King, E. F. Valeev,
    F. A. Evangelista, J. M. Turney, T. D. Crawford, and C. D. Sherrill,
    J. Chem. Theory Comput. 13(7) pp 3185--3197 (2017).
    (doi: 10.1021/acs.jctc.7b00174)


                         Additional Contributions by
    P. Kraus, H. Kruse, M. H. Lechner, M. C. Schieber, R. A. Shaw,
    A. Alenaizan, R. Galvelis, Z. L. Glick, S. Lehtola, and J. P. Misiewicz

    -----------------------------------------------------------------------


    Psi4 started on: Monday, 09 September 2019 09:30PM

    Process ID: 62888
    Host:       node54.bme.utexas.edu
    PSIDATADIR: /home/xy3866/psi4conda/share/psi4
    Memory:     500.0 MiB
    Threads:    4
    
  ==> Input File <==

--------------------------------------------------------------------------
#psi4
#
memory 32 gb

molecule  {
0 1
  C        2.1022740    -0.1999910     0.0000010
  H        3.1931760    -0.2048250     0.0000000
  N        1.3929100    -1.2773340     0.0000000
  H        2.0119970    -2.0793170    -0.0000010
  N        1.5658380     1.0343930     0.0000000
  H        0.5512430     1.1716950     0.0000000
  H        2.1722770     1.8295020    -0.0000010
--
0 1
  C       -1.5105244     0.1514028     0.0000000
  H       -2.6014264     0.1562368     0.0000000
  N       -0.8011604     1.2287458     0.0000000
  H       -1.4202474     2.0307288     0.0000000
  N       -0.9740884    -1.0829812     0.0000000
  H        0.0405066    -1.2202832     0.0000000
  H       -1.5805274    -1.8780902     0.0000000
units angstrom
no_reorient  #important for SAPT in psi4, default
symmetry c1  #important for SAPT in psi4, default
}

set {
basis aug-cc-pVTZ
scf_type DF
freeze_core True
}
energy('sapt2+')
--------------------------------------------------------------------------

  Memory set to  29.802 GiB by Python driver.

  //>>>>>>>>>>>>>>>>>>>>>>>>>>>>>>>>>>>//
  //              Dimer HF             //
  //<<<<<<<<<<<<<<<<<<<<<<<<<<<<<<<<<<<//


*** tstart() called on node54.bme.utexas.edu
*** at Mon Sep  9 21:30:32 2019

   => Loading Basis Set <=

    Name: AUG-CC-PVTZ
    Role: ORBITAL
    Keyword: BASIS
    atoms 1, 8                    entry C          line   235 file /home/xy3866/psi4conda/share/psi4/basis/aug-cc-pvtz.gbs 
    atoms 2, 4, 6-7, 9, 11, 13-14 entry H          line    36 file /home/xy3866/psi4conda/share/psi4/basis/aug-cc-pvtz.gbs 
    atoms 3, 5, 10, 12            entry N          line   281 file /home/xy3866/psi4conda/share/psi4/basis/aug-cc-pvtz.gbs 


         ---------------------------------------------------------
                                   SCF
               by Justin Turney, Rob Parrish, Andy Simmonett
                          and Daniel G. A. Smith
                              RHF Reference
                        4 Threads,  30517 MiB Core
         ---------------------------------------------------------

  ==> Geometry <==

    Molecular point group: c1
    Full point group: C1

    Geometry (in Angstrom), charge = 0, multiplicity = 1:

       Center              X                  Y                   Z               Mass       
    ------------   -----------------  -----------------  -----------------  -----------------
         C            1.806399200000    -0.175696900000     0.000000886638    12.000000000000
         H            2.897301200000    -0.180530900000    -0.000000113362     1.007825032230
         N            1.097035200000    -1.253039900000    -0.000000113362    14.003074004430
         H            1.716122200000    -2.055022900000    -0.000001113362     1.007825032230
         N            1.269963200000     1.058687100000    -0.000000113362    14.003074004430
         H            0.255368200000     1.195989100000    -0.000000113362     1.007825032230
         H            1.876402200000     1.853796100000    -0.000001113362     1.007825032230
         C           -1.806399200000     0.175696900000    -0.000000113362    12.000000000000
         H           -2.897301200000     0.180530900000    -0.000000113362     1.007825032230
         N           -1.097035200000     1.253039900000    -0.000000113362    14.003074004430
         H           -1.716122200000     2.055022900000    -0.000000113362     1.007825032230
         N           -1.269963200000    -1.058687100000    -0.000000113362    14.003074004430
         H           -0.255368200000    -1.195989100000    -0.000000113362     1.007825032230
         H           -1.876402200000    -1.853796100000    -0.000000113362     1.007825032230

  Running in c1 symmetry.

  Rotational constants: A =      0.18005  B =      0.08960  C =      0.05983 [cm^-1]
  Rotational constants: A =   5397.78593  B =   2686.23727  C =   1793.62842 [MHz]
  Nuclear repulsion =  244.117716119377690

  Charge       = 0
  Multiplicity = 1
  Electrons    = 48
  Nalpha       = 24
  Nbeta        = 24

  ==> Algorithm <==

  SCF Algorithm Type is DF.
  DIIS enabled.
  MOM disabled.
  Fractional occupation disabled.
  Guess Type is SAD.
  Energy threshold   = 1.00e-08
  Density threshold  = 1.00e-08
  Integral threshold = 0.00e+00

  ==> Primary Basis <==

  Basis Set: AUG-CC-PVTZ
    Blend: AUG-CC-PVTZ
    Number of shells: 156
    Number of basis function: 460
    Number of Cartesian functions: 530
    Spherical Harmonics?: true
    Max angular momentum: 3

   => Loading Basis Set <=

    Name: (AUG-CC-PVTZ AUX)
    Role: JKFIT
    Keyword: DF_BASIS_SCF
    atoms 1, 8                    entry C          line   162 file /home/xy3866/psi4conda/share/psi4/basis/aug-cc-pvtz-jkfit.gbs 
    atoms 2, 4, 6-7, 9, 11, 13-14 entry H          line    70 file /home/xy3866/psi4conda/share/psi4/basis/aug-cc-pvtz-jkfit.gbs 
    atoms 3, 5, 10, 12            entry N          line   224 file /home/xy3866/psi4conda/share/psi4/basis/aug-cc-pvtz-jkfit.gbs 

  ==> Pre-Iterations <==

   -------------------------------------------------------
    Irrep   Nso     Nmo     Nalpha   Nbeta   Ndocc  Nsocc
   -------------------------------------------------------
     A        460     460       0       0       0       0
   -------------------------------------------------------
    Total     460     460      24      24      24       0
   -------------------------------------------------------

  ==> Integral Setup <==

  ==> DiskDFJK: Density-Fitted J/K Matrices <==

    J tasked:                  Yes
    K tasked:                  Yes
    wK tasked:                  No
    OpenMP threads:              4
    Integrals threads:           4
    Memory [MiB]:            22888
    Algorithm:                Core
    Integral Cache:           SAVE
    Schwarz Cutoff:          1E-12
    Fitting Condition:       1E-10

   => Auxiliary Basis Set <=

  Basis Set: (AUG-CC-PVTZ AUX)
    Blend: AUG-CC-PVTZ-JKFIT
    Number of shells: 292
    Number of basis function: 992
    Number of Cartesian functions: 1226
    Spherical Harmonics?: true
    Max angular momentum: 4

  Minimum eigenvalue in the overlap matrix is 1.3474384135E-05.
  Using Symmetric Orthogonalization.

  SCF Guess: Superposition of Atomic Densities via on-the-fly atomic UHF.

  ==> Iterations <==

                           Total Energy        Delta E     RMS |[F,P]|

   @DF-RHF iter SAD:  -297.56451791898633   -2.97565e+02   0.00000e+00 
   @DF-RHF iter   1:  -297.96729879118010   -4.02781e-01   1.68739e-03 DIIS
   @DF-RHF iter   2:  -298.16313135232292   -1.95833e-01   9.67247e-04 DIIS
   @DF-RHF iter   3:  -298.24267767292628   -7.95463e-02   1.23890e-04 DIIS
   @DF-RHF iter   4:  -298.24508540845386   -2.40774e-03   3.85705e-05 DIIS
   @DF-RHF iter   5:  -298.24528034606521   -1.94938e-04   1.17916e-05 DIIS
   @DF-RHF iter   6:  -298.24530894994444   -2.86039e-05   4.79270e-06 DIIS
   @DF-RHF iter   7:  -298.24531416477970   -5.21484e-06   1.56862e-06 DIIS
   @DF-RHF iter   8:  -298.24531526816077   -1.10338e-06   7.87103e-07 DIIS
   @DF-RHF iter   9:  -298.24531546313358   -1.94973e-07   2.32025e-07 DIIS
   @DF-RHF iter  10:  -298.24531548598111   -2.28475e-08   6.88619e-08 DIIS
   @DF-RHF iter  11:  -298.24531548794545   -1.96434e-09   1.64680e-08 DIIS
   @DF-RHF iter  12:  -298.24531548803344   -8.79936e-11   2.22685e-09 DIIS
  Energy and wave function converged.


  ==> Post-Iterations <==

    Orbital Energies [Eh]
    ---------------------

    Doubly Occupied:                                                      

       1A    -15.518478     2A    -15.518476     3A    -15.508063  
       4A    -15.508062     5A    -11.309316     6A    -11.309315  
       7A     -1.257383     8A     -1.227280     9A     -1.149086  
      10A     -1.110847    11A     -0.849834    12A     -0.788850  
      13A     -0.741493    14A     -0.718969    15A     -0.694133  
      16A     -0.608885    17A     -0.608748    18A     -0.586415  
      19A     -0.521180    20A     -0.496871    21A     -0.440742  
      22A     -0.376456    23A     -0.363985    24A     -0.329413  

    Virtual:                                                              

      25A      0.028741    26A      0.033771    27A      0.037438  
      28A      0.050838    29A      0.051215    30A      0.071546  
      31A      0.075270    32A      0.082151    33A      0.088205  
      34A      0.090316    35A      0.122002    36A      0.130528  
      37A      0.132415    38A      0.133957    39A      0.140880  
      40A      0.142517    41A      0.144538    42A      0.148212  
      43A      0.159562    44A      0.165819    45A      0.170033  
      46A      0.174236    47A      0.187472    48A      0.206835  
      49A      0.208440    50A      0.208670    51A      0.221094  
      52A      0.228873    53A      0.231750    54A      0.238312  
      55A      0.253891    56A      0.274743    57A      0.291246  
      58A      0.301893    59A      0.304260    60A      0.308377  
      61A      0.316695    62A      0.319270    63A      0.325416  
      64A      0.333661    65A      0.337080    66A      0.337392  
      67A      0.355074    68A      0.361369    69A      0.369613  
      70A      0.370918    71A      0.375414    72A      0.378498  
      73A      0.386264    74A      0.392736    75A      0.394334  
      76A      0.398741    77A      0.417217    78A      0.419939  
      79A      0.428628    80A      0.451446    81A      0.454554  
      82A      0.458561    83A      0.459017    84A      0.459345  
      85A      0.463407    86A      0.467822    87A      0.496818  
      88A      0.502786    89A      0.510394    90A      0.537515  
      91A      0.539225    92A      0.545821    93A      0.559879  
      94A      0.562341    95A      0.566442    96A      0.576298  
      97A      0.582031    98A      0.585983    99A      0.611481  
     100A      0.613813   101A      0.637018   102A      0.654785  
     103A      0.664990   104A      0.667798   105A      0.668055  
     106A      0.680681   107A      0.681341   108A      0.686343  
     109A      0.691303   110A      0.703491   111A      0.721149  
     112A      0.722313   113A      0.737613   114A      0.750740  
     115A      0.761478   116A      0.771338   117A      0.772810  
     118A      0.773999   119A      0.787584   120A      0.802429  
     121A      0.808559   122A      0.809982   123A      0.812126  
     124A      0.818490   125A      0.824691   126A      0.846424  
     127A      0.872053   128A      0.884769   129A      0.902100  
     130A      0.903993   131A      0.909331   132A      0.920803  
     133A      0.940667   134A      0.942758   135A      0.952688  
     136A      0.957004   137A      0.964247   138A      0.970507  
     139A      0.973788   140A      0.975597   141A      0.985782  
     142A      1.004801   143A      1.009853   144A      1.022638  
     145A      1.039115   146A      1.039710   147A      1.048079  
     148A      1.056187   149A      1.062230   150A      1.067330  
     151A      1.075979   152A      1.088986   153A      1.103662  
     154A      1.122962   155A      1.127057   156A      1.154038  
     157A      1.154753   158A      1.163335   159A      1.174137  
     160A      1.188130   161A      1.201659   162A      1.223378  
     163A      1.225427   164A      1.229462   165A      1.237176  
     166A      1.241124   167A      1.247707   168A      1.262388  
     169A      1.262998   170A      1.279037   171A      1.279609  
     172A      1.288824   173A      1.301335   174A      1.312957  
     175A      1.316097   176A      1.319569   177A      1.336565  
     178A      1.369149   179A      1.370138   180A      1.370239  
     181A      1.386914   182A      1.392049   183A      1.397400  
     184A      1.416309   185A      1.421994   186A      1.441192  
     187A      1.444215   188A      1.457294   189A      1.457744  
     190A      1.468013   191A      1.476718   192A      1.492547  
     193A      1.501277   194A      1.513867   195A      1.521722  
     196A      1.531434   197A      1.544129   198A      1.545608  
     199A      1.562554   200A      1.571602   201A      1.576205  
     202A      1.591435   203A      1.610427   204A      1.615755  
     205A      1.624683   206A      1.631149   207A      1.648511  
     208A      1.654247   209A      1.675001   210A      1.685974  
     211A      1.702314   212A      1.716876   213A      1.725770  
     214A      1.752155   215A      1.779136   216A      1.802948  
     217A      1.821985   218A      1.834407   219A      1.890183  
     220A      1.892521   221A      1.895464   222A      1.899632  
     223A      1.911507   224A      1.955202   225A      1.998407  
     226A      1.999923   227A      2.034133   228A      2.038013  
     229A      2.041000   230A      2.062370   231A      2.080152  
     232A      2.086082   233A      2.098374   234A      2.121370  
     235A      2.124537   236A      2.165878   237A      2.175180  
     238A      2.185988   239A      2.213514   240A      2.216683  
     241A      2.240093   242A      2.241278   243A      2.257457  
     244A      2.282735   245A      2.290707   246A      2.327355  
     247A      2.330167   248A      2.334719   249A      2.344828  
     250A      2.379241   251A      2.398630   252A      2.414129  
     253A      2.433513   254A      2.469944   255A      2.485488  
     256A      2.492834   257A      2.503800   258A      2.506241  
     259A      2.518159   260A      2.550599   261A      2.554641  
     262A      2.571079   263A      2.571419   264A      2.577495  
     265A      2.590025   266A      2.616118   267A      2.642147  
     268A      2.642444   269A      2.651618   270A      2.680783  
     271A      2.692470   272A      2.693189   273A      2.708225  
     274A      2.785647   275A      2.797672   276A      2.836508  
     277A      2.842311   278A      2.850548   279A      2.858420  
     280A      2.885866   281A      2.886639   282A      2.931112  
     283A      3.002039   284A      3.036820   285A      3.098780  
     286A      3.109776   287A      3.147332   288A      3.157107  
     289A      3.186088   290A      3.270041   291A      3.275110  
     292A      3.377601   293A      3.399965   294A      3.418625  
     295A      3.444345   296A      3.488817   297A      3.508166  
     298A      3.539242   299A      3.548836   300A      3.590533  
     301A      3.643424   302A      3.662056   303A      3.709762  
     304A      3.732916   305A      3.749802   306A      3.781670  
     307A      3.800537   308A      3.838917   309A      3.857643  
     310A      3.861194   311A      3.886415   312A      3.908454  
     313A      3.936172   314A      3.962490   315A      3.985067  
     316A      4.023385   317A      4.066109   318A      4.106284  
     319A      4.118011   320A      4.137761   321A      4.148177  
     322A      4.152861   323A      4.174408   324A      4.210643  
     325A      4.237417   326A      4.245642   327A      4.265684  
     328A      4.265913   329A      4.278054   330A      4.289778  
     331A      4.298860   332A      4.299552   333A      4.310935  
     334A      4.345384   335A      4.367703   336A      4.387908  
     337A      4.397329   338A      4.413673   339A      4.420152  
     340A      4.443597   341A      4.469969   342A      4.481225  
     343A      4.490969   344A      4.491086   345A      4.534746  
     346A      4.554104   347A      4.563707   348A      4.613794  
     349A      4.644004   350A      4.658834   351A      4.660765  
     352A      4.709975   353A      4.713775   354A      4.744026  
     355A      4.775102   356A      4.811119   357A      4.819289  
     358A      4.822451   359A      4.831932   360A      4.841253  
     361A      4.850258   362A      4.856790   363A      4.873376  
     364A      4.875447   365A      4.899346   366A      4.922034  
     367A      4.931181   368A      4.958063   369A      4.989250  
     370A      4.992215   371A      5.022117   372A      5.043993  
     373A      5.075472   374A      5.075491   375A      5.111168  
     376A      5.136904   377A      5.164947   378A      5.181298  
     379A      5.208664   380A      5.258336   381A      5.285171  
     382A      5.285357   383A      5.307342   384A      5.335888  
     385A      5.341595   386A      5.356718   387A      5.382967  
     388A      5.471134   389A      5.480307   390A      5.504289  
     391A      5.512431   392A      5.570110   393A      5.571223  
     394A      5.590578   395A      5.597212   396A      5.606029  
     397A      5.623165   398A      5.650302   399A      5.650521  
     400A      5.673177   401A      5.676998   402A      5.681391  
     403A      5.681466   404A      5.715544   405A      5.771352  
     406A      5.803538   407A      5.849980   408A      5.863380  
     409A      5.865502   410A      5.884779   411A      5.906928  
     412A      5.934705   413A      5.944732   414A      5.950364  
     415A      5.971790   416A      6.024021   417A      6.093536  
     418A      6.119603   419A      6.130506   420A      6.135951  
     421A      6.155906   422A      6.183133   423A      6.213873  
     424A      6.247330   425A      6.262662   426A      6.274577  
     427A      6.342987   428A      6.353113   429A      6.416912  
     430A      6.463327   431A      6.471403   432A      6.509129  
     433A      6.622017   434A      6.650212   435A      6.691339  
     436A      6.696790   437A      6.728260   438A      6.733218  
     439A      6.749285   440A      6.849189   441A      6.919334  
     442A      7.114052   443A      7.172917   444A      7.214890  
     445A      7.497768   446A      7.578697   447A      7.629161  
     448A      7.687671   449A      7.691081   450A      7.785477  
     451A      7.814629   452A      7.988456   453A      8.288518  
     454A      8.378772   455A     17.274398   456A     17.414945  
     457A     18.208625   458A     18.553054   459A     19.862053  
     460A     20.033676  

    Final Occupation by Irrep:
              A 
    DOCC [    24 ]

  @DF-RHF Final Energy:  -298.24531548803344

   => Energetics <=

    Nuclear Repulsion Energy =            244.1177161193776897
    One-Electron Energy =                -889.6415008407660707
    Two-Electron Energy =                 347.2784692333549970
    Total Energy =                       -298.2453154880334409

Computation Completed


Properties will be evaluated at   0.000000,   0.000000,   0.000000 [a0]

Properties computed using the SCF density matrix

  Nuclear Dipole Moment: [e a0]
     X:     0.0000      Y:    -0.0000      Z:    -0.0000

  Electronic Dipole Moment: [e a0]
     X:    -0.0000      Y:     0.0000      Z:     0.0000

  Dipole Moment: [e a0]
     X:    -0.0000      Y:     0.0000      Z:    -0.0000     Total:     0.0000

  Dipole Moment: [D]
     X:    -0.0000      Y:     0.0000      Z:    -0.0000     Total:     0.0000


*** tstop() called on node54.bme.utexas.edu at Mon Sep  9 21:30:56 2019
Module time:
	user time   =      86.16 seconds =       1.44 minutes
	system time =       1.51 seconds =       0.03 minutes
	total time  =         24 seconds =       0.40 minutes
Total time:
	user time   =      86.16 seconds =       1.44 minutes
	system time =       1.51 seconds =       0.03 minutes
	total time  =         24 seconds =       0.40 minutes

  //>>>>>>>>>>>>>>>>>>>>>>>>>>>>>>>>>>>//
  //            Monomer A HF           //
  //<<<<<<<<<<<<<<<<<<<<<<<<<<<<<<<<<<<//


*** tstart() called on node54.bme.utexas.edu
*** at Mon Sep  9 21:30:56 2019

   => Loading Basis Set <=

    Name: AUG-CC-PVTZ
    Role: ORBITAL
    Keyword: BASIS
    atoms 1, 8                    entry C          line   235 file /home/xy3866/psi4conda/share/psi4/basis/aug-cc-pvtz.gbs 
    atoms 2, 4, 6-7, 9, 11, 13-14 entry H          line    36 file /home/xy3866/psi4conda/share/psi4/basis/aug-cc-pvtz.gbs 
    atoms 3, 5, 10, 12            entry N          line   281 file /home/xy3866/psi4conda/share/psi4/basis/aug-cc-pvtz.gbs 


         ---------------------------------------------------------
                                   SCF
               by Justin Turney, Rob Parrish, Andy Simmonett
                          and Daniel G. A. Smith
                              RHF Reference
                        4 Threads,  30517 MiB Core
         ---------------------------------------------------------

  ==> Geometry <==

    Molecular point group: c1
    Full point group: C1

    Geometry (in Angstrom), charge = 0, multiplicity = 1:

       Center              X                  Y                   Z               Mass       
    ------------   -----------------  -----------------  -----------------  -----------------
         C            1.806399200000    -0.175696900000     0.000000886638    12.000000000000
         H            2.897301200000    -0.180530900000    -0.000000113362     1.007825032230
         N            1.097035200000    -1.253039900000    -0.000000113362    14.003074004430
         H            1.716122200000    -2.055022900000    -0.000001113362     1.007825032230
         N            1.269963200000     1.058687100000    -0.000000113362    14.003074004430
         H            0.255368200000     1.195989100000    -0.000000113362     1.007825032230
         H            1.876402200000     1.853796100000    -0.000001113362     1.007825032230
      Gh(C)          -1.806399200000     0.175696900000    -0.000000113362    12.000000000000
      Gh(H)          -2.897301200000     0.180530900000    -0.000000113362     1.007825032230
      Gh(N)          -1.097035200000     1.253039900000    -0.000000113362    14.003074004430
      Gh(H)          -1.716122200000     2.055022900000    -0.000000113362     1.007825032230
      Gh(N)          -1.269963200000    -1.058687100000    -0.000000113362    14.003074004430
      Gh(H)          -0.255368200000    -1.195989100000    -0.000000113362     1.007825032230
      Gh(H)          -1.876402200000    -1.853796100000    -0.000000113362     1.007825032230

  Running in c1 symmetry.

  Rotational constants: A =      0.18005  B =      0.08960  C =      0.05983 [cm^-1]
  Rotational constants: A =   5397.78593  B =   2686.23727  C =   1793.62842 [MHz]
  Nuclear repulsion =   72.180708619553755

  Charge       = 0
  Multiplicity = 1
  Electrons    = 24
  Nalpha       = 12
  Nbeta        = 12

  ==> Algorithm <==

  SCF Algorithm Type is DF.
  DIIS enabled.
  MOM disabled.
  Fractional occupation disabled.
  Guess Type is SAD.
  Energy threshold   = 1.00e-08
  Density threshold  = 1.00e-08
  Integral threshold = 0.00e+00

  ==> Primary Basis <==

  Basis Set: AUG-CC-PVTZ
    Blend: AUG-CC-PVTZ
    Number of shells: 156
    Number of basis function: 460
    Number of Cartesian functions: 530
    Spherical Harmonics?: true
    Max angular momentum: 3

   => Loading Basis Set <=

    Name: (AUG-CC-PVTZ AUX)
    Role: JKFIT
    Keyword: DF_BASIS_SCF
    atoms 1, 8                    entry C          line   162 file /home/xy3866/psi4conda/share/psi4/basis/aug-cc-pvtz-jkfit.gbs 
    atoms 2, 4, 6-7, 9, 11, 13-14 entry H          line    70 file /home/xy3866/psi4conda/share/psi4/basis/aug-cc-pvtz-jkfit.gbs 
    atoms 3, 5, 10, 12            entry N          line   224 file /home/xy3866/psi4conda/share/psi4/basis/aug-cc-pvtz-jkfit.gbs 

  ==> Pre-Iterations <==

   -------------------------------------------------------
    Irrep   Nso     Nmo     Nalpha   Nbeta   Ndocc  Nsocc
   -------------------------------------------------------
     A        460     460       0       0       0       0
   -------------------------------------------------------
    Total     460     460      12      12      12       0
   -------------------------------------------------------

  ==> Integral Setup <==

  ==> DiskDFJK: Density-Fitted J/K Matrices <==

    J tasked:                  Yes
    K tasked:                  Yes
    wK tasked:                  No
    OpenMP threads:              4
    Integrals threads:           4
    Memory [MiB]:            22888
    Algorithm:                Core
    Integral Cache:           LOAD
    Schwarz Cutoff:          1E-12
    Fitting Condition:       1E-10

   => Auxiliary Basis Set <=

  Basis Set: (AUG-CC-PVTZ AUX)
    Blend: AUG-CC-PVTZ-JKFIT
    Number of shells: 292
    Number of basis function: 992
    Number of Cartesian functions: 1226
    Spherical Harmonics?: true
    Max angular momentum: 4

  Minimum eigenvalue in the overlap matrix is 1.3474384135E-05.
  Using Symmetric Orthogonalization.

  SCF Guess: Superposition of Atomic Densities via on-the-fly atomic UHF.

  ==> Iterations <==

                           Total Energy        Delta E     RMS |[F,P]|

   @DF-RHF iter SAD:  -148.38772575108840   -1.48388e+02   0.00000e+00 
   @DF-RHF iter   1:  -148.99754007033491   -6.09814e-01   1.19332e-03 DIIS
   @DF-RHF iter   2:  -149.09955572931699   -1.02016e-01   7.04126e-04 DIIS
   @DF-RHF iter   3:  -149.14148996680029   -4.19342e-02   9.82795e-05 DIIS
   @DF-RHF iter   4:  -149.14290513343795   -1.41517e-03   4.86501e-05 DIIS
   @DF-RHF iter   5:  -149.14318272519256   -2.77592e-04   8.88485e-06 DIIS
   @DF-RHF iter   6:  -149.14321139121878   -2.86660e-05   4.19457e-06 DIIS
   @DF-RHF iter   7:  -149.14321609954303   -4.70832e-06   1.68837e-06 DIIS
   @DF-RHF iter   8:  -149.14321704079555   -9.41253e-07   4.99362e-07 DIIS
   @DF-RHF iter   9:  -149.14321712691967   -8.61241e-08   1.52467e-07 DIIS
   @DF-RHF iter  10:  -149.14321713450491   -7.58524e-09   3.79362e-08 DIIS
   @DF-RHF iter  11:  -149.14321713498094   -4.76035e-10   7.23500e-09 DIIS
  Energy and wave function converged.


  ==> Post-Iterations <==

    Orbital Energies [Eh]
    ---------------------

    Doubly Occupied:                                                      

       1A    -15.581636     2A    -15.519532     3A    -11.314768  
       4A     -1.258995     5A     -1.137034     6A     -0.829934  
       7A     -0.745806     8A     -0.639645     9A     -0.615814  
      10A     -0.530065    11A     -0.419642    12A     -0.359456  

    Virtual:                                                              

      13A      0.021528    14A      0.031080    15A      0.037379  
      16A      0.050959    17A      0.052457    18A      0.069875  
      19A      0.074822    20A      0.074897    21A      0.086447  
      22A      0.089422    23A      0.099053    24A      0.114257  
      25A      0.125838    26A      0.129382    27A      0.131844  
      28A      0.139295    29A      0.142721    30A      0.146362  
      31A      0.152510    32A      0.163075    33A      0.166852  
      34A      0.167187    35A      0.187832    36A      0.202402  
      37A      0.209264    38A      0.213944    39A      0.217760  
      40A      0.224344    41A      0.231687    42A      0.241918  
      43A      0.253031    44A      0.256095    45A      0.282186  
      46A      0.294706    47A      0.302284    48A      0.302667  
      49A      0.308844    50A      0.315281    51A      0.322122  
      52A      0.330644    53A      0.330753    54A      0.345381  
      55A      0.353585    56A      0.354366    57A      0.359001  
      58A      0.366823    59A      0.372944    60A      0.375581  
      61A      0.385321    62A      0.392972    63A      0.401335  
      64A      0.406255    65A      0.407533    66A      0.409373  
      67A      0.417735    68A      0.426988    69A      0.429960  
      70A      0.444146    71A      0.455593    72A      0.458447  
      73A      0.468137    74A      0.476380    75A      0.483965  
      76A      0.492835    77A      0.508299    78A      0.514791  
      79A      0.529412    80A      0.537936    81A      0.538810  
      82A      0.545746    83A      0.564204    84A      0.573123  
      85A      0.581790    86A      0.596881    87A      0.602747  
      88A      0.617775    89A      0.652175    90A      0.652415  
      91A      0.653839    92A      0.665212    93A      0.675739  
      94A      0.690653    95A      0.703747    96A      0.710659  
      97A      0.718934    98A      0.726124    99A      0.727664  
     100A      0.736778   101A      0.753618   102A      0.759972  
     103A      0.773193   104A      0.776971   105A      0.783712  
     106A      0.788729   107A      0.804296   108A      0.806653  
     109A      0.815773   110A      0.833884   111A      0.837757  
     112A      0.848476   113A      0.857519   114A      0.863248  
     115A      0.869031   116A      0.889301   117A      0.894106  
     118A      0.904063   119A      0.918421   120A      0.918525  
     121A      0.928084   122A      0.943342   123A      0.951477  
     124A      0.959865   125A      0.968128   126A      0.972090  
     127A      0.988019   128A      0.989019   129A      1.003972  
     130A      1.020307   131A      1.023832   132A      1.039772  
     133A      1.045315   134A      1.054230   135A      1.075967  
     136A      1.076138   137A      1.086458   138A      1.093044  
     139A      1.107404   140A      1.107951   141A      1.115116  
     142A      1.136016   143A      1.148544   144A      1.156572  
     145A      1.166453   146A      1.168414   147A      1.175914  
     148A      1.194866   149A      1.196327   150A      1.203549  
     151A      1.224799   152A      1.234072   153A      1.244404  
     154A      1.258035   155A      1.268970   156A      1.275088  
     157A      1.285603   158A      1.304466   159A      1.312633  
     160A      1.329962   161A      1.333938   162A      1.356297  
     163A      1.361844   164A      1.366515   165A      1.375834  
     166A      1.387449   167A      1.395953   168A      1.413357  
     169A      1.426701   170A      1.428650   171A      1.442951  
     172A      1.454426   173A      1.460483   174A      1.470959  
     175A      1.490406   176A      1.501788   177A      1.506903  
     178A      1.518270   179A      1.533865   180A      1.533931  
     181A      1.545873   182A      1.550191   183A      1.561359  
     184A      1.563287   185A      1.579787   186A      1.586236  
     187A      1.610864   188A      1.632679   189A      1.632790  
     190A      1.664354   191A      1.673548   192A      1.682221  
     193A      1.705321   194A      1.716339   195A      1.729749  
     196A      1.734440   197A      1.741354   198A      1.743802  
     199A      1.757102   200A      1.767920   201A      1.776018  
     202A      1.784437   203A      1.792333   204A      1.794399  
     205A      1.806424   206A      1.834323   207A      1.845874  
     208A      1.877440   209A      1.884499   210A      1.920709  
     211A      1.925658   212A      1.926329   213A      1.936508  
     214A      1.949381   215A      1.954678   216A      2.045578  
     217A      2.082112   218A      2.092618   219A      2.093631  
     220A      2.122979   221A      2.136365   222A      2.159586  
     223A      2.167998   224A      2.175708   225A      2.202693  
     226A      2.204292   227A      2.214133   228A      2.219928  
     229A      2.230222   230A      2.263538   231A      2.278370  
     232A      2.282692   233A      2.332581   234A      2.362336  
     235A      2.377532   236A      2.381244   237A      2.393896  
     238A      2.429426   239A      2.466552   240A      2.475531  
     241A      2.495317   242A      2.503697   243A      2.529136  
     244A      2.537205   245A      2.544172   246A      2.556130  
     247A      2.569157   248A      2.595580   249A      2.602716  
     250A      2.603681   251A      2.614249   252A      2.647172  
     253A      2.653490   254A      2.657320   255A      2.702386  
     256A      2.709527   257A      2.741430   258A      2.759581  
     259A      2.768469   260A      2.793289   261A      2.798383  
     262A      2.817984   263A      2.851297   264A      2.875828  
     265A      2.915454   266A      2.929958   267A      2.954602  
     268A      2.991498   269A      3.009977   270A      3.020217  
     271A      3.054585   272A      3.071537   273A      3.085279  
     274A      3.124610   275A      3.151799   276A      3.182398  
     277A      3.203992   278A      3.239087   279A      3.258622  
     280A      3.298265   281A      3.332551   282A      3.368286  
     283A      3.421011   284A      3.441235   285A      3.468436  
     286A      3.527768   287A      3.533292   288A      3.564950  
     289A      3.596901   290A      3.656740   291A      3.677073  
     292A      3.718727   293A      3.760421   294A      3.828312  
     295A      3.865241   296A      3.868835   297A      3.897691  
     298A      3.939079   299A      3.951513   300A      3.971754  
     301A      4.026479   302A      4.074238   303A      4.116999  
     304A      4.130780   305A      4.154972   306A      4.195528  
     307A      4.198517   308A      4.225709   309A      4.237170  
     310A      4.264426   311A      4.268420   312A      4.314724  
     313A      4.336325   314A      4.357943   315A      4.386345  
     316A      4.400070   317A      4.432918   318A      4.454074  
     319A      4.478429   320A      4.490691   321A      4.491025  
     322A      4.517739   323A      4.534841   324A      4.593677  
     325A      4.616443   326A      4.637860   327A      4.646791  
     328A      4.647142   329A      4.664727   330A      4.738355  
     331A      4.760980   332A      4.784327   333A      4.785922  
     334A      4.821806   335A      4.827774   336A      4.849189  
     337A      4.849798   338A      4.876098   339A      4.888554  
     340A      4.910356   341A      4.928436   342A      4.935406  
     343A      4.949207   344A      4.958349   345A      4.990279  
     346A      4.991114   347A      5.008331   348A      5.025789  
     349A      5.026085   350A      5.055742   351A      5.074487  
     352A      5.092604   353A      5.115915   354A      5.161734  
     355A      5.174932   356A      5.199859   357A      5.214584  
     358A      5.223645   359A      5.259353   360A      5.288596  
     361A      5.305224   362A      5.343689   363A      5.344905  
     364A      5.379530   365A      5.394819   366A      5.398405  
     367A      5.438385   368A      5.455513   369A      5.462875  
     370A      5.501220   371A      5.504338   372A      5.517471  
     373A      5.558944   374A      5.598920   375A      5.603148  
     376A      5.610640   377A      5.669812   378A      5.680958  
     379A      5.740634   380A      5.749490   381A      5.776654  
     382A      5.806129   383A      5.841953   384A      5.867201  
     385A      5.883447   386A      5.952950   387A      5.959208  
     388A      5.985899   389A      6.024728   390A      6.060631  
     391A      6.071131   392A      6.082579   393A      6.085198  
     394A      6.129961   395A      6.160044   396A      6.165376  
     397A      6.225251   398A      6.244700   399A      6.245476  
     400A      6.315996   401A      6.356918   402A      6.378862  
     403A      6.392146   404A      6.453756   405A      6.513516  
     406A      6.573052   407A      6.611493   408A      6.619995  
     409A      6.635126   410A      6.668849   411A      6.681714  
     412A      6.690312   413A      6.749037   414A      6.763949  
     415A      6.812241   416A      6.880336   417A      6.920241  
     418A      6.970510   419A      6.982730   420A      7.040154  
     421A      7.097714   422A      7.107363   423A      7.227765  
     424A      7.285671   425A      7.437496   426A      7.514228  
     427A      7.571949   428A      7.658737   429A      7.659099  
     430A      7.680678   431A      7.720583   432A      7.754165  
     433A      7.839745   434A      7.845218   435A      7.901941  
     436A      7.924757   437A      8.032862   438A      8.130649  
     439A      8.431838   440A      8.592732   441A      8.729061  
     442A      8.802066   443A      9.118250   444A      9.423003  
     445A      9.492205   446A      9.684429   447A      9.739908  
     448A     10.669599   449A     11.022528   450A     11.354715  
     451A     11.784108   452A     11.954825   453A     12.452052  
     454A     13.262347   455A     17.508921   456A     18.349426  
     457A     19.830858   458A     53.011355   459A     60.338218  
     460A     64.032957  

    Final Occupation by Irrep:
              A 
    DOCC [    12 ]

  @DF-RHF Final Energy:  -149.14321713498094

   => Energetics <=

    Nuclear Repulsion Energy =             72.1807086195537551
    One-Electron Energy =                -344.7431963304669011
    Two-Electron Energy =                 123.4192705759322166
    Total Energy =                       -149.1432171349809437

Computation Completed


Properties will be evaluated at   0.000000,   0.000000,   0.000000 [a0]

Properties computed using the SCF density matrix

  Nuclear Dipole Moment: [e a0]
     X:    64.5390      Y:    -3.0244      Z:     0.0000

  Electronic Dipole Moment: [e a0]
     X:   -63.7169      Y:     4.0165      Z:    -0.0000

  Dipole Moment: [e a0]
     X:     0.8221      Y:     0.9922      Z:    -0.0000     Total:     1.2885

  Dipole Moment: [D]
     X:     2.0895      Y:     2.5219      Z:    -0.0000     Total:     3.2750


*** tstop() called on node54.bme.utexas.edu at Mon Sep  9 21:31:09 2019
Module time:
	user time   =      48.71 seconds =       0.81 minutes
	system time =       0.84 seconds =       0.01 minutes
	total time  =         13 seconds =       0.22 minutes
Total time:
	user time   =     134.90 seconds =       2.25 minutes
	system time =       2.35 seconds =       0.04 minutes
	total time  =         37 seconds =       0.62 minutes

  //>>>>>>>>>>>>>>>>>>>>>>>>>>>>>>>>>>>//
  //            Monomer B HF           //
  //<<<<<<<<<<<<<<<<<<<<<<<<<<<<<<<<<<<//


*** tstart() called on node54.bme.utexas.edu
*** at Mon Sep  9 21:31:09 2019

   => Loading Basis Set <=

    Name: AUG-CC-PVTZ
    Role: ORBITAL
    Keyword: BASIS
    atoms 1, 8                    entry C          line   235 file /home/xy3866/psi4conda/share/psi4/basis/aug-cc-pvtz.gbs 
    atoms 2, 4, 6-7, 9, 11, 13-14 entry H          line    36 file /home/xy3866/psi4conda/share/psi4/basis/aug-cc-pvtz.gbs 
    atoms 3, 5, 10, 12            entry N          line   281 file /home/xy3866/psi4conda/share/psi4/basis/aug-cc-pvtz.gbs 


         ---------------------------------------------------------
                                   SCF
               by Justin Turney, Rob Parrish, Andy Simmonett
                          and Daniel G. A. Smith
                              RHF Reference
                        4 Threads,  30517 MiB Core
         ---------------------------------------------------------

  ==> Geometry <==

    Molecular point group: c1
    Full point group: C1

    Geometry (in Angstrom), charge = 0, multiplicity = 1:

       Center              X                  Y                   Z               Mass       
    ------------   -----------------  -----------------  -----------------  -----------------
      Gh(C)           1.806399200000    -0.175696900000     0.000000886638    12.000000000000
      Gh(H)           2.897301200000    -0.180530900000    -0.000000113362     1.007825032230
      Gh(N)           1.097035200000    -1.253039900000    -0.000000113362    14.003074004430
      Gh(H)           1.716122200000    -2.055022900000    -0.000001113362     1.007825032230
      Gh(N)           1.269963200000     1.058687100000    -0.000000113362    14.003074004430
      Gh(H)           0.255368200000     1.195989100000    -0.000000113362     1.007825032230
      Gh(H)           1.876402200000     1.853796100000    -0.000001113362     1.007825032230
         C           -1.806399200000     0.175696900000    -0.000000113362    12.000000000000
         H           -2.897301200000     0.180530900000    -0.000000113362     1.007825032230
         N           -1.097035200000     1.253039900000    -0.000000113362    14.003074004430
         H           -1.716122200000     2.055022900000    -0.000000113362     1.007825032230
         N           -1.269963200000    -1.058687100000    -0.000000113362    14.003074004430
         H           -0.255368200000    -1.195989100000    -0.000000113362     1.007825032230
         H           -1.876402200000    -1.853796100000    -0.000000113362     1.007825032230

  Running in c1 symmetry.

  Rotational constants: A =      0.18005  B =      0.08960  C =      0.05983 [cm^-1]
  Rotational constants: A =   5397.78593  B =   2686.23727  C =   1793.62842 [MHz]
  Nuclear repulsion =   72.180708619570424

  Charge       = 0
  Multiplicity = 1
  Electrons    = 24
  Nalpha       = 12
  Nbeta        = 12

  ==> Algorithm <==

  SCF Algorithm Type is DF.
  DIIS enabled.
  MOM disabled.
  Fractional occupation disabled.
  Guess Type is SAD.
  Energy threshold   = 1.00e-08
  Density threshold  = 1.00e-08
  Integral threshold = 0.00e+00

  ==> Primary Basis <==

  Basis Set: AUG-CC-PVTZ
    Blend: AUG-CC-PVTZ
    Number of shells: 156
    Number of basis function: 460
    Number of Cartesian functions: 530
    Spherical Harmonics?: true
    Max angular momentum: 3

   => Loading Basis Set <=

    Name: (AUG-CC-PVTZ AUX)
    Role: JKFIT
    Keyword: DF_BASIS_SCF
    atoms 1, 8                    entry C          line   162 file /home/xy3866/psi4conda/share/psi4/basis/aug-cc-pvtz-jkfit.gbs 
    atoms 2, 4, 6-7, 9, 11, 13-14 entry H          line    70 file /home/xy3866/psi4conda/share/psi4/basis/aug-cc-pvtz-jkfit.gbs 
    atoms 3, 5, 10, 12            entry N          line   224 file /home/xy3866/psi4conda/share/psi4/basis/aug-cc-pvtz-jkfit.gbs 

  ==> Pre-Iterations <==

   -------------------------------------------------------
    Irrep   Nso     Nmo     Nalpha   Nbeta   Ndocc  Nsocc
   -------------------------------------------------------
     A        460     460       0       0       0       0
   -------------------------------------------------------
    Total     460     460      12      12      12       0
   -------------------------------------------------------

  ==> Integral Setup <==

  ==> DiskDFJK: Density-Fitted J/K Matrices <==

    J tasked:                  Yes
    K tasked:                  Yes
    wK tasked:                  No
    OpenMP threads:              4
    Integrals threads:           4
    Memory [MiB]:            22888
    Algorithm:                Core
    Integral Cache:           LOAD
    Schwarz Cutoff:          1E-12
    Fitting Condition:       1E-10

   => Auxiliary Basis Set <=

  Basis Set: (AUG-CC-PVTZ AUX)
    Blend: AUG-CC-PVTZ-JKFIT
    Number of shells: 292
    Number of basis function: 992
    Number of Cartesian functions: 1226
    Spherical Harmonics?: true
    Max angular momentum: 4

  Minimum eigenvalue in the overlap matrix is 1.3474384135E-05.
  Using Symmetric Orthogonalization.

  SCF Guess: Superposition of Atomic Densities via on-the-fly atomic UHF.

  ==> Iterations <==

                           Total Energy        Delta E     RMS |[F,P]|

   @DF-RHF iter SAD:  -148.38772575094788   -1.48388e+02   0.00000e+00 
   @DF-RHF iter   1:  -148.99754007018797   -6.09814e-01   1.19332e-03 DIIS
   @DF-RHF iter   2:  -149.09955572916851   -1.02016e-01   7.04126e-04 DIIS
   @DF-RHF iter   3:  -149.14148996665037   -4.19342e-02   9.82795e-05 DIIS
   @DF-RHF iter   4:  -149.14290513328876   -1.41517e-03   4.86501e-05 DIIS
   @DF-RHF iter   5:  -149.14318272504266   -2.77592e-04   8.88485e-06 DIIS
   @DF-RHF iter   6:  -149.14321139106897   -2.86660e-05   4.19457e-06 DIIS
   @DF-RHF iter   7:  -149.14321609939327   -4.70832e-06   1.68837e-06 DIIS
   @DF-RHF iter   8:  -149.14321704064548   -9.41252e-07   4.99362e-07 DIIS
   @DF-RHF iter   9:  -149.14321712677028   -8.61248e-08   1.52467e-07 DIIS
   @DF-RHF iter  10:  -149.14321713435496   -7.58467e-09   3.79362e-08 DIIS
   @DF-RHF iter  11:  -149.14321713483048   -4.75524e-10   7.23500e-09 DIIS
  Energy and wave function converged.


  ==> Post-Iterations <==

    Orbital Energies [Eh]
    ---------------------

    Doubly Occupied:                                                      

       1A    -15.581636     2A    -15.519532     3A    -11.314768  
       4A     -1.258995     5A     -1.137034     6A     -0.829934  
       7A     -0.745806     8A     -0.639645     9A     -0.615814  
      10A     -0.530065    11A     -0.419642    12A     -0.359456  

    Virtual:                                                              

      13A      0.021528    14A      0.031080    15A      0.037379  
      16A      0.050959    17A      0.052457    18A      0.069875  
      19A      0.074822    20A      0.074897    21A      0.086447  
      22A      0.089422    23A      0.099053    24A      0.114257  
      25A      0.125838    26A      0.129382    27A      0.131844  
      28A      0.139295    29A      0.142721    30A      0.146362  
      31A      0.152510    32A      0.163075    33A      0.166852  
      34A      0.167187    35A      0.187832    36A      0.202402  
      37A      0.209264    38A      0.213944    39A      0.217760  
      40A      0.224344    41A      0.231687    42A      0.241918  
      43A      0.253031    44A      0.256095    45A      0.282186  
      46A      0.294706    47A      0.302284    48A      0.302667  
      49A      0.308844    50A      0.315281    51A      0.322122  
      52A      0.330644    53A      0.330753    54A      0.345381  
      55A      0.353585    56A      0.354366    57A      0.359001  
      58A      0.366823    59A      0.372944    60A      0.375581  
      61A      0.385321    62A      0.392972    63A      0.401335  
      64A      0.406255    65A      0.407533    66A      0.409373  
      67A      0.417735    68A      0.426988    69A      0.429960  
      70A      0.444146    71A      0.455593    72A      0.458447  
      73A      0.468137    74A      0.476380    75A      0.483965  
      76A      0.492835    77A      0.508299    78A      0.514791  
      79A      0.529412    80A      0.537936    81A      0.538810  
      82A      0.545746    83A      0.564204    84A      0.573123  
      85A      0.581790    86A      0.596881    87A      0.602747  
      88A      0.617775    89A      0.652175    90A      0.652415  
      91A      0.653839    92A      0.665212    93A      0.675739  
      94A      0.690653    95A      0.703747    96A      0.710659  
      97A      0.718934    98A      0.726124    99A      0.727664  
     100A      0.736778   101A      0.753618   102A      0.759972  
     103A      0.773193   104A      0.776971   105A      0.783712  
     106A      0.788729   107A      0.804296   108A      0.806653  
     109A      0.815773   110A      0.833884   111A      0.837757  
     112A      0.848476   113A      0.857519   114A      0.863248  
     115A      0.869031   116A      0.889301   117A      0.894106  
     118A      0.904063   119A      0.918421   120A      0.918525  
     121A      0.928084   122A      0.943342   123A      0.951477  
     124A      0.959865   125A      0.968128   126A      0.972090  
     127A      0.988019   128A      0.989019   129A      1.003972  
     130A      1.020307   131A      1.023832   132A      1.039772  
     133A      1.045315   134A      1.054230   135A      1.075967  
     136A      1.076138   137A      1.086458   138A      1.093044  
     139A      1.107404   140A      1.107951   141A      1.115116  
     142A      1.136016   143A      1.148544   144A      1.156572  
     145A      1.166453   146A      1.168414   147A      1.175914  
     148A      1.194866   149A      1.196327   150A      1.203549  
     151A      1.224799   152A      1.234072   153A      1.244404  
     154A      1.258035   155A      1.268970   156A      1.275088  
     157A      1.285603   158A      1.304466   159A      1.312633  
     160A      1.329962   161A      1.333938   162A      1.356297  
     163A      1.361844   164A      1.366515   165A      1.375834  
     166A      1.387449   167A      1.395953   168A      1.413357  
     169A      1.426701   170A      1.428650   171A      1.442951  
     172A      1.454426   173A      1.460483   174A      1.470959  
     175A      1.490406   176A      1.501788   177A      1.506903  
     178A      1.518270   179A      1.533865   180A      1.533931  
     181A      1.545873   182A      1.550191   183A      1.561359  
     184A      1.563287   185A      1.579787   186A      1.586236  
     187A      1.610864   188A      1.632679   189A      1.632790  
     190A      1.664354   191A      1.673548   192A      1.682221  
     193A      1.705321   194A      1.716339   195A      1.729749  
     196A      1.734440   197A      1.741354   198A      1.743802  
     199A      1.757102   200A      1.767920   201A      1.776018  
     202A      1.784437   203A      1.792333   204A      1.794399  
     205A      1.806424   206A      1.834323   207A      1.845874  
     208A      1.877440   209A      1.884499   210A      1.920709  
     211A      1.925658   212A      1.926329   213A      1.936508  
     214A      1.949381   215A      1.954678   216A      2.045578  
     217A      2.082112   218A      2.092618   219A      2.093631  
     220A      2.122979   221A      2.136365   222A      2.159586  
     223A      2.167998   224A      2.175708   225A      2.202693  
     226A      2.204292   227A      2.214133   228A      2.219928  
     229A      2.230222   230A      2.263538   231A      2.278370  
     232A      2.282692   233A      2.332581   234A      2.362336  
     235A      2.377532   236A      2.381244   237A      2.393896  
     238A      2.429426   239A      2.466552   240A      2.475530  
     241A      2.495317   242A      2.503697   243A      2.529136  
     244A      2.537205   245A      2.544172   246A      2.556130  
     247A      2.569157   248A      2.595580   249A      2.602716  
     250A      2.603681   251A      2.614249   252A      2.647172  
     253A      2.653490   254A      2.657320   255A      2.702386  
     256A      2.709527   257A      2.741430   258A      2.759581  
     259A      2.768469   260A      2.793289   261A      2.798383  
     262A      2.817984   263A      2.851297   264A      2.875828  
     265A      2.915454   266A      2.929958   267A      2.954602  
     268A      2.991498   269A      3.009977   270A      3.020217  
     271A      3.054585   272A      3.071537   273A      3.085279  
     274A      3.124610   275A      3.151799   276A      3.182398  
     277A      3.203992   278A      3.239087   279A      3.258622  
     280A      3.298265   281A      3.332551   282A      3.368286  
     283A      3.421011   284A      3.441236   285A      3.468436  
     286A      3.527768   287A      3.533292   288A      3.564950  
     289A      3.596901   290A      3.656740   291A      3.677073  
     292A      3.718727   293A      3.760421   294A      3.828312  
     295A      3.865241   296A      3.868835   297A      3.897691  
     298A      3.939079   299A      3.951513   300A      3.971754  
     301A      4.026479   302A      4.074238   303A      4.116999  
     304A      4.130780   305A      4.154972   306A      4.195528  
     307A      4.198517   308A      4.225709   309A      4.237170  
     310A      4.264426   311A      4.268420   312A      4.314724  
     313A      4.336325   314A      4.357943   315A      4.386345  
     316A      4.400070   317A      4.432918   318A      4.454074  
     319A      4.478429   320A      4.490691   321A      4.491025  
     322A      4.517739   323A      4.534841   324A      4.593677  
     325A      4.616443   326A      4.637860   327A      4.646791  
     328A      4.647142   329A      4.664727   330A      4.738355  
     331A      4.760980   332A      4.784327   333A      4.785922  
     334A      4.821806   335A      4.827774   336A      4.849189  
     337A      4.849798   338A      4.876098   339A      4.888554  
     340A      4.910356   341A      4.928436   342A      4.935406  
     343A      4.949207   344A      4.958349   345A      4.990279  
     346A      4.991114   347A      5.008331   348A      5.025789  
     349A      5.026085   350A      5.055742   351A      5.074487  
     352A      5.092604   353A      5.115915   354A      5.161734  
     355A      5.174932   356A      5.199859   357A      5.214584  
     358A      5.223645   359A      5.259353   360A      5.288596  
     361A      5.305224   362A      5.343689   363A      5.344905  
     364A      5.379530   365A      5.394819   366A      5.398405  
     367A      5.438385   368A      5.455513   369A      5.462875  
     370A      5.501220   371A      5.504338   372A      5.517471  
     373A      5.558944   374A      5.598920   375A      5.603148  
     376A      5.610640   377A      5.669812   378A      5.680958  
     379A      5.740634   380A      5.749490   381A      5.776654  
     382A      5.806129   383A      5.841953   384A      5.867201  
     385A      5.883447   386A      5.952950   387A      5.959208  
     388A      5.985899   389A      6.024728   390A      6.060631  
     391A      6.071131   392A      6.082579   393A      6.085198  
     394A      6.129961   395A      6.160044   396A      6.165376  
     397A      6.225251   398A      6.244700   399A      6.245476  
     400A      6.315996   401A      6.356918   402A      6.378862  
     403A      6.392146   404A      6.453756   405A      6.513516  
     406A      6.573052   407A      6.611493   408A      6.619995  
     409A      6.635126   410A      6.668849   411A      6.681714  
     412A      6.690312   413A      6.749037   414A      6.763949  
     415A      6.812241   416A      6.880336   417A      6.920241  
     418A      6.970510   419A      6.982730   420A      7.040154  
     421A      7.097714   422A      7.107363   423A      7.227765  
     424A      7.285671   425A      7.437496   426A      7.514228  
     427A      7.571949   428A      7.658737   429A      7.659099  
     430A      7.680678   431A      7.720583   432A      7.754165  
     433A      7.839745   434A      7.845218   435A      7.901941  
     436A      7.924757   437A      8.032862   438A      8.130649  
     439A      8.431838   440A      8.592732   441A      8.729061  
     442A      8.802066   443A      9.118250   444A      9.423003  
     445A      9.492205   446A      9.684429   447A      9.739908  
     448A     10.669599   449A     11.022528   450A     11.354715  
     451A     11.784108   452A     11.954825   453A     12.452052  
     454A     13.262347   455A     17.508921   456A     18.349426  
     457A     19.830858   458A     53.011355   459A     60.338218  
     460A     64.032957  

    Final Occupation by Irrep:
              A 
    DOCC [    12 ]

  @DF-RHF Final Energy:  -149.14321713483048

   => Energetics <=

    Nuclear Repulsion Energy =             72.1807086195704244
    One-Electron Energy =                -344.7431963304483133
    Two-Electron Energy =                 123.4192705760474240
    Total Energy =                       -149.1432171348304792

Computation Completed


Properties will be evaluated at   0.000000,   0.000000,   0.000000 [a0]

Properties computed using the SCF density matrix

  Nuclear Dipole Moment: [e a0]
     X:   -64.5390      Y:     3.0244      Z:    -0.0000

  Electronic Dipole Moment: [e a0]
     X:    63.7169      Y:    -4.0165      Z:     0.0000

  Dipole Moment: [e a0]
     X:    -0.8221      Y:    -0.9922      Z:    -0.0000     Total:     1.2885

  Dipole Moment: [D]
     X:    -2.0895      Y:    -2.5219      Z:    -0.0000     Total:     3.2750


*** tstop() called on node54.bme.utexas.edu at Mon Sep  9 21:31:22 2019
Module time:
	user time   =      46.94 seconds =       0.78 minutes
	system time =       0.96 seconds =       0.02 minutes
	total time  =         13 seconds =       0.22 minutes
Total time:
	user time   =     181.86 seconds =       3.03 minutes
	system time =       3.31 seconds =       0.06 minutes
	total time  =         50 seconds =       0.83 minutes
  Constructing Basis Sets for SAPT...

   => Loading Basis Set <=

    Name: (AUG-CC-PVTZ AUX)
    Role: RIFIT
    Keyword: DF_BASIS_SAPT
    atoms 1, 8                    entry C          line   148 file /home/xy3866/psi4conda/share/psi4/basis/aug-cc-pvtz-ri.gbs 
    atoms 2, 4, 6-7, 9, 11, 13-14 entry H          line    30 file /home/xy3866/psi4conda/share/psi4/basis/aug-cc-pvtz-ri.gbs 
    atoms 3, 5, 10, 12            entry N          line   206 file /home/xy3866/psi4conda/share/psi4/basis/aug-cc-pvtz-ri.gbs 


  //>>>>>>>>>>>>>>>>>>>>>>>>>>>>>>>>>>>//
  //               SAPT2+              //
  //<<<<<<<<<<<<<<<<<<<<<<<<<<<<<<<<<<<//


*** tstart() called on node54.bme.utexas.edu
*** at Mon Sep  9 21:31:22 2019

        SAPT2+  
    Ed Hohenstein
     6 June 2009

      Orbital Information
  --------------------------
    NSO        =       460
    NMO        =       460
    NRI        =      1004
    NOCC A     =        12
    NOCC B     =        12
    FOCC A     =         3
    FOCC B     =         3
    NVIR A     =       448
    NVIR B     =       448

    Estimated memory usage: 2305.7 MB

    Natural Orbital Cutoff:   1.000E-06
    Disp(T3) Truncation:            Yes
    CCD (vv|vv) Truncation:         Yes
    MBPT T2 Truncation:             Yes

    Monomer A: 239 virtual orbitals dropped
    Monomer B: 239 virtual orbitals dropped

    Elst10,r            =    -0.135138531766 [Eh]
    Exch10 (S^2)        =     0.249926129275 [Eh]
    Exch10              =     0.270290600225 [Eh]
    Ind20,r (A<-B)      =    -0.068379102142 [Eh]
    Ind20,r (B<-A)      =    -0.068379102141 [Eh]
    Ind20,r             =    -0.136758204283 [Eh]
    Exch-Ind20,r (A<-B) =     0.038970233197 [Eh]
    Exch-Ind20,r (B<-A) =     0.038970233197 [Eh]
    Exch-Ind20,r        =     0.077940466394 [Eh]
    Disp20              =    -0.054479119550 [Eh]
    Disp20 (NO)         =    -0.049491572414 [Eh]
    Exch-Disp20         =     0.012186344218 [Eh]
    Elst12,r            =    -0.000116477743 [Eh]
    Exch11              =     0.003686379678 [Eh]
    Exch12              =     0.004341352446 [Eh]
    Ind22               =    -0.011101689793 [Eh]
    Disp21              =     0.006598672130 [Eh]
    Disp22 (SDQ)        =     0.000646123114 [Eh]

    (i =   1 of   9)         39 seconds
    (i =   2 of   9)         79 seconds
    (i =   3 of   9)        118 seconds
    (i =   4 of   9)        157 seconds
    (i =   5 of   9)        197 seconds
    (i =   6 of   9)        236 seconds
    (i =   7 of   9)        276 seconds
    (i =   8 of   9)        316 seconds
    (i =   9 of   9)        355 seconds

    Disp220 (T)         =    -0.003737530996 [Eh]

    (i =   1 of   9)         40 seconds
    (i =   2 of   9)         79 seconds
    (i =   3 of   9)        118 seconds
    (i =   4 of   9)        158 seconds
    (i =   5 of   9)        197 seconds
    (i =   6 of   9)        237 seconds
    (i =   7 of   9)        277 seconds
    (i =   8 of   9)        316 seconds
    (i =   9 of   9)        355 seconds

    Disp202 (T)         =    -0.003737530996 [Eh]

    Disp22 (T)          =    -0.007475061992 [Eh]

    Est. Disp220 (T)    =    -0.004114183244 [Eh]
    Est. Disp202 (T)    =    -0.004114183244 [Eh]

    Est. Disp22 (T)     =    -0.008228366488 [Eh]

    SAPT Results 
  --------------------------------------------------------------------------------------------------------
    Electrostatics               -135.25500951 [mEh]     -84.87379984 [kcal/mol]    -355.11197854 [kJ/mol]
      Elst10,r                   -135.13853177 [mEh]     -84.80070896 [kcal/mol]    -354.80616627 [kJ/mol]
      Elst12,r                     -0.11647774 [mEh]      -0.07309089 [kcal/mol]      -0.30581227 [kJ/mol]

    Exchange                      278.31833235 [mEh]     174.64739028 [kcal/mol]     730.72468091 [kJ/mol]
      Exch10                      270.29060023 [mEh]     169.60991231 [kcal/mol]     709.64787312 [kJ/mol]
      Exch10(S^2)                 249.92612927 [mEh]     156.83101386 [kcal/mol]     656.18096201 [kJ/mol]
      Exch11(S^2)                   3.68637968 [mEh]       2.31323817 [kcal/mol]       9.67858851 [kJ/mol]
      Exch12(S^2)                   4.34135245 [mEh]       2.72423979 [kcal/mol]      11.39821928 [kJ/mol]

    Induction                     -98.80796388 [mEh]     -62.00293342 [kcal/mol]    -259.42027344 [kJ/mol]
      Ind20,r                    -136.75820428 [mEh]     -85.81706880 [kcal/mol]    -359.05861588 [kJ/mol]
      Ind22                       -11.10168979 [mEh]      -6.96641552 [kcal/mol]     -29.14748254 [kJ/mol]
      Exch-Ind20,r                 77.94046639 [mEh]      48.90838105 [kcal/mol]     204.63266633 [kJ/mol]
      Exch-Ind22                    6.32701259 [mEh]       3.97026034 [kcal/mol]      16.61156927 [kJ/mol]
      delta HF,r (2)              -35.21554879 [mEh]     -22.09809049 [kcal/mol]     -92.45841062 [kJ/mol]

    Dispersion                    -43.27634658 [mEh]     -27.15631747 [kcal/mol]    -113.62203228 [kJ/mol]
      Disp20                      -54.47911955 [mEh]     -34.18616364 [kcal/mol]    -143.03490867 [kJ/mol]
      Disp21                        6.59867213 [mEh]       4.14072928 [kcal/mol]      17.32481129 [kJ/mol]
      Disp22 (SDQ)                  0.64612311 [mEh]       0.40544838 [kcal/mol]       1.69639600 [kJ/mol]
      Disp22 (T)                   -7.47506199 [mEh]      -4.69067222 [kcal/mol]     -19.62577256 [kJ/mol]
      Est. Disp22 (T)              -8.22836649 [mEh]      -5.16337792 [kcal/mol]     -21.60357324 [kJ/mol]
      Exch-Disp20                  12.18634422 [mEh]       7.64704645 [kcal/mol]      31.99524234 [kJ/mol]

  Total HF                         41.11878178 [mEh]      25.80242512 [kcal/mol]     107.95734668 [kJ/mol]
  Total SAPT0                      -1.17399355 [mEh]      -0.73669208 [kcal/mol]      -3.08231965 [kJ/mol]
  Total SAPT2                       1.96258362 [mEh]       1.23153982 [kcal/mol]       5.15276260 [kJ/mol]
  Total SAPT2+                      0.97901238 [mEh]       0.61433954 [kcal/mol]       2.57039665 [kJ/mol]

  Special recipe for scaled SAPT0 (see Manual):
    Electrostatics sSAPT0        -135.13853177 [mEh]     -84.80070896 [kcal/mol]    -354.80616627 [kJ/mol]
    Exchange sSAPT0               270.29060023 [mEh]     169.60991231 [kcal/mol]     709.64787312 [kJ/mol]
    Induction sSAPT0              -73.38648344 [mEh]     -46.05071361 [kcal/mol]    -192.67618574 [kJ/mol]
    Dispersion sSAPT0             -39.06455432 [mEh]     -24.51337792 [kcal/mol]    -102.56397324 [kJ/mol]
  Total sSAPT0                     22.70103069 [mEh]      14.24511183 [kcal/mol]      59.60154788 [kJ/mol]
  --------------------------------------------------------------------------------------------------------

*** tstop() called on node54.bme.utexas.edu at Mon Sep  9 21:48:04 2019
Module time:
	user time   =    3844.17 seconds =      64.07 minutes
	system time =      67.33 seconds =       1.12 minutes
	total time  =       1002 seconds =      16.70 minutes
Total time:
	user time   =    4026.33 seconds =      67.11 minutes
	system time =      70.65 seconds =       1.18 minutes
	total time  =       1052 seconds =      17.53 minutes

    Psi4 stopped on: Monday, 09 September 2019 09:48PM
    Psi4 wall time for execution: 0:17:32.04

*** Psi4 exiting successfully. Buy a developer a beer!
