
    -----------------------------------------------------------------------
          Psi4: An Open-Source Ab Initio Electronic Structure Package
                               Psi4 1.3.2 release

                         Git: Rev {HEAD} ecbda83 


    R. M. Parrish, L. A. Burns, D. G. A. Smith, A. C. Simmonett,
    A. E. DePrince III, E. G. Hohenstein, U. Bozkaya, A. Yu. Sokolov,
    R. Di Remigio, R. M. Richard, J. F. Gonthier, A. M. James,
    H. R. McAlexander, A. Kumar, M. Saitow, X. Wang, B. P. Pritchard,
    P. Verma, H. F. Schaefer III, K. Patkowski, R. A. King, E. F. Valeev,
    F. A. Evangelista, J. M. Turney, T. D. Crawford, and C. D. Sherrill,
    J. Chem. Theory Comput. 13(7) pp 3185--3197 (2017).
    (doi: 10.1021/acs.jctc.7b00174)


                         Additional Contributions by
    P. Kraus, H. Kruse, M. H. Lechner, M. C. Schieber, R. A. Shaw,
    A. Alenaizan, R. Galvelis, Z. L. Glick, S. Lehtola, and J. P. Misiewicz

    -----------------------------------------------------------------------


    Psi4 started on: Monday, 09 September 2019 10:37PM

    Process ID: 65638
    Host:       node54.bme.utexas.edu
    PSIDATADIR: /home/xy3866/psi4conda/share/psi4
    Memory:     500.0 MiB
    Threads:    4
    
  ==> Input File <==

--------------------------------------------------------------------------
#psi4
#
memory 32 gb

molecule  {
0 1
  C        2.1022740    -0.1999910     0.0000010
  H        3.1931760    -0.2048250     0.0000000
  N        1.3929100    -1.2773340     0.0000000
  H        2.0119970    -2.0793170    -0.0000010
  N        1.5658380     1.0343930     0.0000000
  H        0.5512430     1.1716950     0.0000000
  H        2.1722770     1.8295020    -0.0000010
--
0 1
  C       -2.2502114     0.2121381     0.0000000
  H       -3.3411134     0.2169721     0.0000000
  N       -1.5408474     1.2894811     0.0000000
  H       -2.1599344     2.0914640     0.0000000
  N       -1.7137754    -1.0222459     0.0000000
  H       -0.6991804    -1.1595479     0.0000000
  H       -2.3202144    -1.8173549     0.0000000
units angstrom
no_reorient  #important for SAPT in psi4, default
symmetry c1  #important for SAPT in psi4, default
}

set {
basis aug-cc-pVTZ
scf_type DF
freeze_core True
}
energy('sapt2+')
--------------------------------------------------------------------------

  Memory set to  29.802 GiB by Python driver.

  //>>>>>>>>>>>>>>>>>>>>>>>>>>>>>>>>>>>//
  //              Dimer HF             //
  //<<<<<<<<<<<<<<<<<<<<<<<<<<<<<<<<<<<//


*** tstart() called on node54.bme.utexas.edu
*** at Mon Sep  9 22:37:57 2019

   => Loading Basis Set <=

    Name: AUG-CC-PVTZ
    Role: ORBITAL
    Keyword: BASIS
    atoms 1, 8                    entry C          line   235 file /home/xy3866/psi4conda/share/psi4/basis/aug-cc-pvtz.gbs 
    atoms 2, 4, 6-7, 9, 11, 13-14 entry H          line    36 file /home/xy3866/psi4conda/share/psi4/basis/aug-cc-pvtz.gbs 
    atoms 3, 5, 10, 12            entry N          line   281 file /home/xy3866/psi4conda/share/psi4/basis/aug-cc-pvtz.gbs 


         ---------------------------------------------------------
                                   SCF
               by Justin Turney, Rob Parrish, Andy Simmonett
                          and Daniel G. A. Smith
                              RHF Reference
                        4 Threads,  30517 MiB Core
         ---------------------------------------------------------

  ==> Geometry <==

    Molecular point group: c1
    Full point group: C1

    Geometry (in Angstrom), charge = 0, multiplicity = 1:

       Center              X                  Y                   Z               Mass       
    ------------   -----------------  -----------------  -----------------  -----------------
         C            2.176242700000    -0.206064548856     0.000000886638    12.000000000000
         H            3.267144700000    -0.210898548856    -0.000000113362     1.007825032230
         N            1.466878700000    -1.283407548856    -0.000000113362    14.003074004430
         H            2.085965700000    -2.085390548856    -0.000001113362     1.007825032230
         N            1.639806700000     1.028319451144    -0.000000113362    14.003074004430
         H            0.625211700000     1.165621451144    -0.000000113362     1.007825032230
         H            2.246245700000     1.823428451144    -0.000001113362     1.007825032230
         C           -2.176242700000     0.206064551144    -0.000000113362    12.000000000000
         H           -3.267144700000     0.210898551144    -0.000000113362     1.007825032230
         N           -1.466878700000     1.283407551144    -0.000000113362    14.003074004430
         H           -2.085965700000     2.085390451144    -0.000000113362     1.007825032230
         N           -1.639806700000    -1.028319448856    -0.000000113362    14.003074004430
         H           -0.625211700000    -1.165621448856    -0.000000113362     1.007825032230
         H           -2.246245700000    -1.823428448856    -0.000000113362     1.007825032230

  Running in c1 symmetry.

  Rotational constants: A =      0.18002  B =      0.05775  C =      0.04372 [cm^-1]
  Rotational constants: A =   5396.82269  B =   1731.37717  C =   1310.84085 [MHz]
  Nuclear repulsion =  225.120003215702951

  Charge       = 0
  Multiplicity = 1
  Electrons    = 48
  Nalpha       = 24
  Nbeta        = 24

  ==> Algorithm <==

  SCF Algorithm Type is DF.
  DIIS enabled.
  MOM disabled.
  Fractional occupation disabled.
  Guess Type is SAD.
  Energy threshold   = 1.00e-08
  Density threshold  = 1.00e-08
  Integral threshold = 0.00e+00

  ==> Primary Basis <==

  Basis Set: AUG-CC-PVTZ
    Blend: AUG-CC-PVTZ
    Number of shells: 156
    Number of basis function: 460
    Number of Cartesian functions: 530
    Spherical Harmonics?: true
    Max angular momentum: 3

   => Loading Basis Set <=

    Name: (AUG-CC-PVTZ AUX)
    Role: JKFIT
    Keyword: DF_BASIS_SCF
    atoms 1, 8                    entry C          line   162 file /home/xy3866/psi4conda/share/psi4/basis/aug-cc-pvtz-jkfit.gbs 
    atoms 2, 4, 6-7, 9, 11, 13-14 entry H          line    70 file /home/xy3866/psi4conda/share/psi4/basis/aug-cc-pvtz-jkfit.gbs 
    atoms 3, 5, 10, 12            entry N          line   224 file /home/xy3866/psi4conda/share/psi4/basis/aug-cc-pvtz-jkfit.gbs 

  ==> Pre-Iterations <==

   -------------------------------------------------------
    Irrep   Nso     Nmo     Nalpha   Nbeta   Ndocc  Nsocc
   -------------------------------------------------------
     A        460     460       0       0       0       0
   -------------------------------------------------------
    Total     460     460      24      24      24       0
   -------------------------------------------------------

  ==> Integral Setup <==

  ==> DiskDFJK: Density-Fitted J/K Matrices <==

    J tasked:                  Yes
    K tasked:                  Yes
    wK tasked:                  No
    OpenMP threads:              4
    Integrals threads:           4
    Memory [MiB]:            22888
    Algorithm:                Core
    Integral Cache:           SAVE
    Schwarz Cutoff:          1E-12
    Fitting Condition:       1E-10

   => Auxiliary Basis Set <=

  Basis Set: (AUG-CC-PVTZ AUX)
    Blend: AUG-CC-PVTZ-JKFIT
    Number of shells: 292
    Number of basis function: 992
    Number of Cartesian functions: 1226
    Spherical Harmonics?: true
    Max angular momentum: 4

  Minimum eigenvalue in the overlap matrix is 2.0156601466E-05.
  Using Symmetric Orthogonalization.

  SCF Guess: Superposition of Atomic Densities via on-the-fly atomic UHF.

  ==> Iterations <==

                           Total Energy        Delta E     RMS |[F,P]|

   @DF-RHF iter SAD:  -296.95130761622039   -2.96951e+02   0.00000e+00 
   @DF-RHF iter   1:  -298.03854800297051   -1.08724e+00   1.62844e-03 DIIS
   @DF-RHF iter   2:  -298.22881416865255   -1.90266e-01   9.23938e-04 DIIS
   @DF-RHF iter   3:  -298.30087513050137   -7.20610e-02   1.31731e-04 DIIS
   @DF-RHF iter   4:  -298.30343423663049   -2.55911e-03   6.02311e-05 DIIS
   @DF-RHF iter   5:  -298.30384872248879   -4.14486e-04   1.16444e-05 DIIS
   @DF-RHF iter   6:  -298.30389535549205   -4.66330e-05   5.50345e-06 DIIS
   @DF-RHF iter   7:  -298.30390398397219   -8.62848e-06   2.12936e-06 DIIS
   @DF-RHF iter   8:  -298.30390575720673   -1.77323e-06   7.31770e-07 DIIS
   @DF-RHF iter   9:  -298.30390594369283   -1.86486e-07   2.43487e-07 DIIS
   @DF-RHF iter  10:  -298.30390596408677   -2.03939e-08   6.38401e-08 DIIS
   @DF-RHF iter  11:  -298.30390596552149   -1.43473e-09   1.24679e-08 DIIS
   @DF-RHF iter  12:  -298.30390596556691   -4.54179e-11   1.99906e-09 DIIS
  Energy and wave function converged.


  ==> Post-Iterations <==

    Orbital Energies [Eh]
    ---------------------

    Doubly Occupied:                                                      

       1A    -15.557688     2A    -15.557688     3A    -15.515616  
       4A    -15.515616     5A    -11.310669     6A    -11.310669  
       7A     -1.248895     8A     -1.244252     9A     -1.132546  
      10A     -1.126793    11A     -0.823875    12A     -0.811452  
      13A     -0.737225    14A     -0.728596    15A     -0.643241  
      16A     -0.618334    17A     -0.608331    18A     -0.604810  
      19A     -0.519931    20A     -0.514375    21A     -0.437539  
      22A     -0.409712    23A     -0.355777    24A     -0.347593  

    Virtual:                                                              

      25A      0.028435    26A      0.031862    27A      0.037864  
      28A      0.049212    29A      0.050593    30A      0.069956  
      31A      0.080119    32A      0.083199    33A      0.086421  
      34A      0.089951    35A      0.120734    36A      0.130308  
      37A      0.131775    38A      0.132899    39A      0.138161  
      40A      0.138811    41A      0.140592    42A      0.145857  
      43A      0.159444    44A      0.159528    45A      0.168547  
      46A      0.174201    47A      0.188849    48A      0.191606  
      49A      0.213316    50A      0.216026    51A      0.221288  
      52A      0.226211    53A      0.229998    54A      0.239262  
      55A      0.250805    56A      0.258925    57A      0.282085  
      58A      0.294881    59A      0.296609    60A      0.297861  
      61A      0.304947    62A      0.311065    63A      0.313388  
      64A      0.319597    65A      0.326225    66A      0.336883  
      67A      0.349635    68A      0.360482    69A      0.363646  
      70A      0.367382    71A      0.367633    72A      0.374053  
      73A      0.377749    74A      0.381391    75A      0.395790  
      76A      0.396700    77A      0.397176    78A      0.399444  
      79A      0.430827    80A      0.433177    81A      0.434961  
      82A      0.435319    83A      0.441878    84A      0.448513  
      85A      0.454800    86A      0.458845    87A      0.466852  
      88A      0.474802    89A      0.509778    90A      0.514382  
      91A      0.525634    92A      0.527879    93A      0.528805  
      94A      0.536349    95A      0.544526    96A      0.559867  
      97A      0.569602    98A      0.572260    99A      0.576654  
     100A      0.599405   101A      0.614372   102A      0.614379  
     103A      0.637088   104A      0.643090   105A      0.643852  
     106A      0.652860   107A      0.663482   108A      0.671397  
     109A      0.671756   110A      0.691976   111A      0.697608  
     112A      0.715448   113A      0.720630   114A      0.722360  
     115A      0.726691   116A      0.749520   117A      0.764268  
     118A      0.765491   119A      0.772545   120A      0.774242  
     121A      0.778080   122A      0.780328   123A      0.790430  
     124A      0.795353   125A      0.804780   126A      0.810620  
     127A      0.858819   128A      0.867755   129A      0.893549  
     130A      0.894166   131A      0.902646   132A      0.915823  
     133A      0.919660   134A      0.929789   135A      0.935570  
     136A      0.936152   137A      0.947489   138A      0.953182  
     139A      0.955035   140A      0.957029   141A      0.971287  
     142A      0.979355   143A      0.993107   144A      0.994578  
     145A      1.007510   146A      1.019082   147A      1.022926  
     148A      1.023348   149A      1.027295   150A      1.031977  
     151A      1.048020   152A      1.061694   153A      1.072748  
     154A      1.078097   155A      1.086737   156A      1.105693  
     157A      1.106085   158A      1.109945   159A      1.128104  
     160A      1.140870   161A      1.143450   162A      1.146785  
     163A      1.152889   164A      1.176807   165A      1.196005  
     166A      1.202933   167A      1.211391   168A      1.218042  
     169A      1.223834   170A      1.233620   171A      1.244214  
     172A      1.254808   173A      1.264230   174A      1.272873  
     175A      1.277835   176A      1.280376   177A      1.282923  
     178A      1.301473   179A      1.325945   180A      1.332033  
     181A      1.342243   182A      1.360525   183A      1.365586  
     184A      1.365899   185A      1.371216   186A      1.391358  
     187A      1.415665   188A      1.418936   189A      1.428262  
     190A      1.432864   191A      1.448866   192A      1.453574  
     193A      1.465999   194A      1.470940   195A      1.472397  
     196A      1.476787   197A      1.490102   198A      1.493262  
     199A      1.512446   200A      1.517066   201A      1.528269  
     202A      1.531671   203A      1.543864   204A      1.564653  
     205A      1.573421   206A      1.575917   207A      1.595906  
     208A      1.596387   209A      1.623044   210A      1.648055  
     211A      1.655624   212A      1.668779   213A      1.677175  
     214A      1.684712   215A      1.701938   216A      1.714275  
     217A      1.747994   218A      1.771225   219A      1.773010  
     220A      1.790486   221A      1.815776   222A      1.817362  
     223A      1.838722   224A      1.893914   225A      1.894229  
     226A      1.949571   227A      1.956033   228A      1.970816  
     229A      1.972702   230A      1.985936   231A      1.994571  
     232A      2.000406   233A      2.027103   234A      2.041394  
     235A      2.050353   236A      2.076773   237A      2.076961  
     238A      2.103979   239A      2.125629   240A      2.140364  
     241A      2.140635   242A      2.142306   243A      2.160362  
     244A      2.169316   245A      2.212799   246A      2.218024  
     247A      2.226480   248A      2.240055   249A      2.261909  
     250A      2.270184   251A      2.275085   252A      2.285882  
     253A      2.293811   254A      2.324232   255A      2.355191  
     256A      2.370184   257A      2.372005   258A      2.394738  
     259A      2.408352   260A      2.438677   261A      2.465738  
     262A      2.471871   263A      2.491581   264A      2.497616  
     265A      2.522226   266A      2.527518   267A      2.558370  
     268A      2.567394   269A      2.573676   270A      2.584176  
     271A      2.612440   272A      2.656609   273A      2.661032  
     274A      2.663829   275A      2.689961   276A      2.691347  
     277A      2.695586   278A      2.704759   279A      2.733736  
     280A      2.734494   281A      2.768360   282A      2.813166  
     283A      2.864603   284A      2.865187   285A      2.923985  
     286A      2.965851   287A      3.035839   288A      3.062966  
     289A      3.109766   290A      3.136718   291A      3.152987  
     292A      3.172297   293A      3.258668   294A      3.290162  
     295A      3.384343   296A      3.396681   297A      3.410559  
     298A      3.446892   299A      3.491540   300A      3.496039  
     301A      3.591425   302A      3.594945   303A      3.625465  
     304A      3.670921   305A      3.695048   306A      3.702095  
     307A      3.745418   308A      3.790820   309A      3.801006  
     310A      3.816728   311A      3.823219   312A      3.836227  
     313A      3.855644   314A      3.884592   315A      3.918774  
     316A      3.932018   317A      3.968482   318A      4.003419  
     319A      4.004184   320A      4.033766   321A      4.065787  
     322A      4.094180   323A      4.095800   324A      4.096843  
     325A      4.125869   326A      4.136559   327A      4.147969  
     328A      4.150989   329A      4.198651   330A      4.204503  
     331A      4.204539   332A      4.228741   333A      4.243122  
     334A      4.259665   335A      4.275602   336A      4.298838  
     337A      4.318432   338A      4.321168   339A      4.338209  
     340A      4.352595   341A      4.377350   342A      4.391207  
     343A      4.399755   344A      4.412719   345A      4.462799  
     346A      4.464502   347A      4.481392   348A      4.502529  
     349A      4.532402   350A      4.561980   351A      4.586823  
     352A      4.613341   353A      4.616274   354A      4.645124  
     355A      4.652413   356A      4.668147   357A      4.691950  
     358A      4.716600   359A      4.749331   360A      4.755601  
     361A      4.759693   362A      4.777283   363A      4.830858  
     364A      4.836525   365A      4.854972   366A      4.865951  
     367A      4.887965   368A      4.890210   369A      4.896515  
     370A      4.915689   371A      4.922119   372A      4.925255  
     373A      4.937540   374A      4.975439   375A      5.001402  
     376A      5.027699   377A      5.032720   378A      5.053824  
     379A      5.101601   380A      5.134183   381A      5.171602  
     382A      5.192028   383A      5.203026   384A      5.219501  
     385A      5.231762   386A      5.231769   387A      5.254065  
     388A      5.276774   389A      5.325391   390A      5.364532  
     391A      5.384249   392A      5.423658   393A      5.440137  
     394A      5.447151   395A      5.482842   396A      5.487602  
     397A      5.513591   398A      5.531781   399A      5.549289  
     400A      5.555231   401A      5.588452   402A      5.602078  
     403A      5.647073   404A      5.652423   405A      5.700739  
     406A      5.705063   407A      5.720730   408A      5.736332  
     409A      5.739121   410A      5.742247   411A      5.773534  
     412A      5.777358   413A      5.817823   414A      5.832215  
     415A      5.839046   416A      5.867098   417A      5.914603  
     418A      5.969543   419A      5.971408   420A      5.981373  
     421A      5.990120   422A      6.007402   423A      6.110663  
     424A      6.134334   425A      6.165810   426A      6.178441  
     427A      6.179821   428A      6.186969   429A      6.217293  
     430A      6.230039   431A      6.278040   432A      6.288981  
     433A      6.376748   434A      6.383516   435A      6.566009  
     436A      6.579014   437A      6.584257   438A      6.595292  
     439A      6.676967   440A      6.691558   441A      6.703865  
     442A      6.738624   443A      6.920571   444A      6.941995  
     445A      7.072674   446A      7.072817   447A      7.432401  
     448A      7.523383   449A      7.552814   450A      7.575658  
     451A      7.663363   452A      7.709445   453A      7.808107  
     454A      7.892279   455A     17.089545   456A     17.243827  
     457A     17.310737   458A     17.765122   459A     18.897587  
     460A     18.999496  

    Final Occupation by Irrep:
              A 
    DOCC [    24 ]

  @DF-RHF Final Energy:  -298.30390596556691

   => Energetics <=

    Nuclear Repulsion Energy =            225.1200032157029511
    One-Electron Energy =                -851.4853721638611432
    Two-Electron Energy =                 328.0614629825913084
    Total Energy =                       -298.3039059655669121

Computation Completed


Properties will be evaluated at   0.000000,   0.000000,   0.000000 [a0]

Properties computed using the SCF density matrix

  Nuclear Dipole Moment: [e a0]
     X:     0.0000      Y:    -0.0000      Z:    -0.0000

  Electronic Dipole Moment: [e a0]
     X:    -0.0000      Y:     0.0000      Z:     0.0000

  Dipole Moment: [e a0]
     X:    -0.0000      Y:    -0.0000      Z:    -0.0000     Total:     0.0000

  Dipole Moment: [D]
     X:    -0.0000      Y:    -0.0000      Z:    -0.0000     Total:     0.0000


*** tstop() called on node54.bme.utexas.edu at Mon Sep  9 22:38:20 2019
Module time:
	user time   =      84.10 seconds =       1.40 minutes
	system time =       1.49 seconds =       0.02 minutes
	total time  =         23 seconds =       0.38 minutes
Total time:
	user time   =      84.10 seconds =       1.40 minutes
	system time =       1.49 seconds =       0.02 minutes
	total time  =         23 seconds =       0.38 minutes

  //>>>>>>>>>>>>>>>>>>>>>>>>>>>>>>>>>>>//
  //            Monomer A HF           //
  //<<<<<<<<<<<<<<<<<<<<<<<<<<<<<<<<<<<//


*** tstart() called on node54.bme.utexas.edu
*** at Mon Sep  9 22:38:20 2019

   => Loading Basis Set <=

    Name: AUG-CC-PVTZ
    Role: ORBITAL
    Keyword: BASIS
    atoms 1, 8                    entry C          line   235 file /home/xy3866/psi4conda/share/psi4/basis/aug-cc-pvtz.gbs 
    atoms 2, 4, 6-7, 9, 11, 13-14 entry H          line    36 file /home/xy3866/psi4conda/share/psi4/basis/aug-cc-pvtz.gbs 
    atoms 3, 5, 10, 12            entry N          line   281 file /home/xy3866/psi4conda/share/psi4/basis/aug-cc-pvtz.gbs 


         ---------------------------------------------------------
                                   SCF
               by Justin Turney, Rob Parrish, Andy Simmonett
                          and Daniel G. A. Smith
                              RHF Reference
                        4 Threads,  30517 MiB Core
         ---------------------------------------------------------

  ==> Geometry <==

    Molecular point group: c1
    Full point group: C1

    Geometry (in Angstrom), charge = 0, multiplicity = 1:

       Center              X                  Y                   Z               Mass       
    ------------   -----------------  -----------------  -----------------  -----------------
         C            2.176242700000    -0.206064548856     0.000000886638    12.000000000000
         H            3.267144700000    -0.210898548856    -0.000000113362     1.007825032230
         N            1.466878700000    -1.283407548856    -0.000000113362    14.003074004430
         H            2.085965700000    -2.085390548856    -0.000001113362     1.007825032230
         N            1.639806700000     1.028319451144    -0.000000113362    14.003074004430
         H            0.625211700000     1.165621451144    -0.000000113362     1.007825032230
         H            2.246245700000     1.823428451144    -0.000001113362     1.007825032230
      Gh(C)          -2.176242700000     0.206064551144    -0.000000113362    12.000000000000
      Gh(H)          -3.267144700000     0.210898551144    -0.000000113362     1.007825032230
      Gh(N)          -1.466878700000     1.283407551144    -0.000000113362    14.003074004430
      Gh(H)          -2.085965700000     2.085390451144    -0.000000113362     1.007825032230
      Gh(N)          -1.639806700000    -1.028319448856    -0.000000113362    14.003074004430
      Gh(H)          -0.625211700000    -1.165621448856    -0.000000113362     1.007825032230
      Gh(H)          -2.246245700000    -1.823428448856    -0.000000113362     1.007825032230

  Running in c1 symmetry.

  Rotational constants: A =      0.18002  B =      0.05775  C =      0.04372 [cm^-1]
  Rotational constants: A =   5396.82269  B =   1731.37717  C =   1310.84085 [MHz]
  Nuclear repulsion =   72.180708619553769

  Charge       = 0
  Multiplicity = 1
  Electrons    = 24
  Nalpha       = 12
  Nbeta        = 12

  ==> Algorithm <==

  SCF Algorithm Type is DF.
  DIIS enabled.
  MOM disabled.
  Fractional occupation disabled.
  Guess Type is SAD.
  Energy threshold   = 1.00e-08
  Density threshold  = 1.00e-08
  Integral threshold = 0.00e+00

  ==> Primary Basis <==

  Basis Set: AUG-CC-PVTZ
    Blend: AUG-CC-PVTZ
    Number of shells: 156
    Number of basis function: 460
    Number of Cartesian functions: 530
    Spherical Harmonics?: true
    Max angular momentum: 3

   => Loading Basis Set <=

    Name: (AUG-CC-PVTZ AUX)
    Role: JKFIT
    Keyword: DF_BASIS_SCF
    atoms 1, 8                    entry C          line   162 file /home/xy3866/psi4conda/share/psi4/basis/aug-cc-pvtz-jkfit.gbs 
    atoms 2, 4, 6-7, 9, 11, 13-14 entry H          line    70 file /home/xy3866/psi4conda/share/psi4/basis/aug-cc-pvtz-jkfit.gbs 
    atoms 3, 5, 10, 12            entry N          line   224 file /home/xy3866/psi4conda/share/psi4/basis/aug-cc-pvtz-jkfit.gbs 

  ==> Pre-Iterations <==

   -------------------------------------------------------
    Irrep   Nso     Nmo     Nalpha   Nbeta   Ndocc  Nsocc
   -------------------------------------------------------
     A        460     460       0       0       0       0
   -------------------------------------------------------
    Total     460     460      12      12      12       0
   -------------------------------------------------------

  ==> Integral Setup <==

  ==> DiskDFJK: Density-Fitted J/K Matrices <==

    J tasked:                  Yes
    K tasked:                  Yes
    wK tasked:                  No
    OpenMP threads:              4
    Integrals threads:           4
    Memory [MiB]:            22888
    Algorithm:                Core
    Integral Cache:           LOAD
    Schwarz Cutoff:          1E-12
    Fitting Condition:       1E-10

   => Auxiliary Basis Set <=

  Basis Set: (AUG-CC-PVTZ AUX)
    Blend: AUG-CC-PVTZ-JKFIT
    Number of shells: 292
    Number of basis function: 992
    Number of Cartesian functions: 1226
    Spherical Harmonics?: true
    Max angular momentum: 4

  Minimum eigenvalue in the overlap matrix is 2.0156601466E-05.
  Using Symmetric Orthogonalization.

  SCF Guess: Superposition of Atomic Densities via on-the-fly atomic UHF.

  ==> Iterations <==

                           Total Energy        Delta E     RMS |[F,P]|

   @DF-RHF iter SAD:  -148.38772523919152   -1.48388e+02   0.00000e+00 
   @DF-RHF iter   1:  -148.99743597767662   -6.09711e-01   1.19322e-03 DIIS
   @DF-RHF iter   2:  -149.09943409895794   -1.01998e-01   7.04005e-04 DIIS
   @DF-RHF iter   3:  -149.14135395166474   -4.19199e-02   9.82753e-05 DIIS
   @DF-RHF iter   4:  -149.14276910628323   -1.41515e-03   4.86449e-05 DIIS
   @DF-RHF iter   5:  -149.14304668471189   -2.77578e-04   8.88043e-06 DIIS
   @DF-RHF iter   6:  -149.14307533354034   -2.86488e-05   4.19437e-06 DIIS
   @DF-RHF iter   7:  -149.14308003935602   -4.70582e-06   1.68827e-06 DIIS
   @DF-RHF iter   8:  -149.14308098105553   -9.41700e-07   4.98565e-07 DIIS
   @DF-RHF iter   9:  -149.14308106686346   -8.58079e-08   1.52276e-07 DIIS
   @DF-RHF iter  10:  -149.14308107443460   -7.57115e-09   3.78216e-08 DIIS
   @DF-RHF iter  11:  -149.14308107490837   -4.73761e-10   7.22447e-09 DIIS
  Energy and wave function converged.


  ==> Post-Iterations <==

    Orbital Energies [Eh]
    ---------------------

    Doubly Occupied:                                                      

       1A    -15.581658     2A    -15.519545     3A    -11.314763  
       4A     -1.259003     5A     -1.137051     6A     -0.829941  
       7A     -0.745815     8A     -0.639653     9A     -0.615825  
      10A     -0.530069    11A     -0.419649    12A     -0.359460  

    Virtual:                                                              

      13A      0.021303    14A      0.030235    15A      0.036711  
      16A      0.049618    17A      0.051234    18A      0.070072  
      19A      0.074769    20A      0.074978    21A      0.086346  
      22A      0.086971    23A      0.096651    24A      0.112531  
      25A      0.126469    26A      0.127220    27A      0.130277  
      28A      0.135366    29A      0.138459    30A      0.140905  
      31A      0.148753    32A      0.160183    33A      0.163476  
      34A      0.166660    35A      0.187096    36A      0.191725  
      37A      0.197181    38A      0.211053    39A      0.219764  
      40A      0.221894    41A      0.226284    42A      0.239048  
      43A      0.248286    44A      0.252008    45A      0.272757  
      46A      0.287613    47A      0.294985    48A      0.296007  
      49A      0.304549    50A      0.304704    51A      0.313751  
      52A      0.315155    53A      0.331936    54A      0.341505  
      55A      0.346513    56A      0.355138    57A      0.360146  
      58A      0.367392    59A      0.368331    60A      0.371258  
      61A      0.372334    62A      0.378072    63A      0.385857  
      64A      0.390812    65A      0.395311    66A      0.397922  
      67A      0.412378    68A      0.417127    69A      0.430735  
      70A      0.432980    71A      0.436551    72A      0.451963  
      73A      0.455437    74A      0.456090    75A      0.470276  
      76A      0.475942    77A      0.495893    78A      0.503395  
      79A      0.504839    80A      0.515369    81A      0.529133  
      82A      0.532881    83A      0.547123    84A      0.555326  
      85A      0.572229    86A      0.585813    87A      0.588843  
      88A      0.612103    89A      0.618281    90A      0.625722  
      91A      0.631679    92A      0.636645    93A      0.645764  
      94A      0.650509    95A      0.674568    96A      0.688347  
      97A      0.694074    98A      0.701269    99A      0.708694  
     100A      0.729120   101A      0.736642   102A      0.754355  
     103A      0.755365   104A      0.767579   105A      0.777686  
     106A      0.780070   107A      0.791380   108A      0.792948  
     109A      0.805978   110A      0.812666   111A      0.812876  
     112A      0.829905   113A      0.830703   114A      0.835373  
     115A      0.851592   116A      0.864437   117A      0.871041  
     118A      0.889226   119A      0.896159   120A      0.904183  
     121A      0.911340   122A      0.924740   123A      0.928731  
     124A      0.936234   125A      0.946320   126A      0.946537  
     127A      0.959858   128A      0.978222   129A      0.986168  
     130A      0.987049   131A      0.995598   132A      1.006395  
     133A      1.006703   134A      1.018847   135A      1.023271  
     136A      1.035959   137A      1.052720   138A      1.064712  
     139A      1.072865   140A      1.076514   141A      1.081578  
     142A      1.085205   143A      1.097490   144A      1.112552  
     145A      1.112902   146A      1.115738   147A      1.123739  
     148A      1.128670   149A      1.152906   150A      1.157458  
     151A      1.185680   152A      1.191983   153A      1.210611  
     154A      1.215937   155A      1.225908   156A      1.234014  
     157A      1.248401   158A      1.258291   159A      1.266870  
     160A      1.270729   161A      1.275780   162A      1.302050  
     163A      1.302551   164A      1.306225   165A      1.335398  
     166A      1.340885   167A      1.349379   168A      1.371330  
     169A      1.374903   170A      1.385396   171A      1.393691  
     172A      1.406445   173A      1.418283   174A      1.440702  
     175A      1.460403   176A      1.461867   177A      1.472063  
     178A      1.480767   179A      1.483280   180A      1.489735  
     181A      1.492665   182A      1.504876   183A      1.519221  
     184A      1.532416   185A      1.537467   186A      1.567079  
     187A      1.583729   188A      1.584341   189A      1.598925  
     190A      1.601178   191A      1.626096   192A      1.628235  
     193A      1.640718   194A      1.655763   195A      1.670733  
     196A      1.673778   197A      1.687273   198A      1.693767  
     199A      1.705801   200A      1.724012   201A      1.739606  
     202A      1.743539   203A      1.750708   204A      1.771024  
     205A      1.772834   206A      1.786951   207A      1.788285  
     208A      1.800978   209A      1.817126   210A      1.819400  
     211A      1.851932   212A      1.879712   213A      1.885397  
     214A      1.910537   215A      1.919133   216A      1.944893  
     217A      1.948429   218A      1.964287   219A      1.982002  
     220A      1.995217   221A      2.024557   222A      2.039117  
     223A      2.070324   224A      2.076417   225A      2.082519  
     226A      2.109552   227A      2.124581   228A      2.135471  
     229A      2.156703   230A      2.169216   231A      2.185939  
     232A      2.218257   233A      2.226799   234A      2.257123  
     235A      2.260464   236A      2.287768   237A      2.311492  
     238A      2.321746   239A      2.342156   240A      2.354991  
     241A      2.359858   242A      2.364535   243A      2.391429  
     244A      2.400325   245A      2.414844   246A      2.434230  
     247A      2.435171   248A      2.464894   249A      2.465402  
     250A      2.507755   251A      2.528675   252A      2.545112  
     253A      2.555987   254A      2.561994   255A      2.592275  
     256A      2.620094   257A      2.642460   258A      2.648334  
     259A      2.663502   260A      2.683688   261A      2.696731  
     262A      2.712545   263A      2.733571   264A      2.739988  
     265A      2.783704   266A      2.808206   267A      2.846562  
     268A      2.850388   269A      2.865992   270A      2.884424  
     271A      2.961350   272A      2.969084   273A      2.974159  
     274A      3.002039   275A      3.051095   276A      3.066130  
     277A      3.120328   278A      3.138918   279A      3.165275  
     280A      3.170348   281A      3.179765   282A      3.235694  
     283A      3.281738   284A      3.319008   285A      3.381157  
     286A      3.415304   287A      3.415553   288A      3.491129  
     289A      3.505041   290A      3.519247   291A      3.604953  
     292A      3.619824   293A      3.691449   294A      3.692552  
     295A      3.786815   296A      3.795499   297A      3.817334  
     298A      3.826855   299A      3.859111   300A      3.878419  
     301A      3.941535   302A      3.998647   303A      4.021749  
     304A      4.065339   305A      4.077146   306A      4.086254  
     307A      4.120494   308A      4.125899   309A      4.126923  
     310A      4.170848   311A      4.199058   312A      4.223292  
     313A      4.237109   314A      4.272040   315A      4.310538  
     316A      4.321255   317A      4.369017   318A      4.378133  
     319A      4.420933   320A      4.429836   321A      4.445253  
     322A      4.446286   323A      4.465243   324A      4.481030  
     325A      4.539632   326A      4.543374   327A      4.569291  
     328A      4.598686   329A      4.609982   330A      4.651219  
     331A      4.666499   332A      4.677196   333A      4.704863  
     334A      4.713842   335A      4.742448   336A      4.747315  
     337A      4.752993   338A      4.790960   339A      4.818523  
     340A      4.854337   341A      4.864097   342A      4.868648  
     343A      4.883740   344A      4.890303   345A      4.894809  
     346A      4.906669   347A      4.919954   348A      4.938045  
     349A      4.974146   350A      4.979150   351A      4.993592  
     352A      4.997946   353A      5.035181   354A      5.042195  
     355A      5.064785   356A      5.083098   357A      5.103664  
     358A      5.171724   359A      5.201554   360A      5.203139  
     361A      5.211462   362A      5.218009   363A      5.249168  
     364A      5.277836   365A      5.296928   366A      5.322075  
     367A      5.331941   368A      5.333786   369A      5.369234  
     370A      5.392070   371A      5.427001   372A      5.442664  
     373A      5.466649   374A      5.473353   375A      5.491459  
     376A      5.502431   377A      5.519002   378A      5.534794  
     379A      5.564491   380A      5.597140   381A      5.642434  
     382A      5.710074   383A      5.724286   384A      5.737116  
     385A      5.766977   386A      5.769272   387A      5.790461  
     388A      5.826259   389A      5.846729   390A      5.882232  
     391A      5.924405   392A      5.958630   393A      5.978493  
     394A      6.028675   395A      6.071110   396A      6.086733  
     397A      6.116737   398A      6.118843   399A      6.130135  
     400A      6.193266   401A      6.208178   402A      6.219631  
     403A      6.239339   404A      6.281524   405A      6.282303  
     406A      6.386558   407A      6.389868   408A      6.429476  
     409A      6.451881   410A      6.551109   411A      6.570172  
     412A      6.596453   413A      6.604630   414A      6.608194  
     415A      6.665344   416A      6.686615   417A      6.703728  
     418A      6.745766   419A      6.851951   420A      6.855226  
     421A      6.901789   422A      6.932271   423A      7.039584  
     424A      7.061356   425A      7.267650   426A      7.359156  
     427A      7.409860   428A      7.459408   429A      7.551237  
     430A      7.592624   431A      7.602002   432A      7.656870  
     433A      7.667554   434A      7.699135   435A      7.747134  
     436A      7.752848   437A      7.851315   438A      7.964693  
     439A      8.172942   440A      8.310024   441A      8.447162  
     442A      8.572719   443A      9.000745   444A      9.321612  
     445A      9.387466   446A      9.469843   447A      9.514893  
     448A     10.178442   449A     10.744570   450A     11.236806  
     451A     11.622639   452A     11.766764   453A     12.094127  
     454A     12.868136   455A     17.223469   456A     17.477136  
     457A     18.928024   458A     51.645316   459A     59.378193  
     460A     62.488105  

    Final Occupation by Irrep:
              A 
    DOCC [    12 ]

  @DF-RHF Final Energy:  -149.14308107490837

   => Energetics <=

    Nuclear Repulsion Energy =             72.1807086195537693
    One-Electron Energy =                -344.7427126201635588
    Two-Electron Energy =                 123.4189229257014659
    Total Energy =                       -149.1430810749083662

Computation Completed


Properties will be evaluated at   0.000000,   0.000000,   0.000000 [a0]

Properties computed using the SCF density matrix

  Nuclear Dipole Moment: [e a0]
     X:    81.3127      Y:    -4.4016      Z:     0.0000

  Electronic Dipole Moment: [e a0]
     X:   -80.4903      Y:     5.3939      Z:    -0.0000

  Dipole Moment: [e a0]
     X:     0.8224      Y:     0.9922      Z:    -0.0000     Total:     1.2888

  Dipole Moment: [D]
     X:     2.0904      Y:     2.5220      Z:    -0.0000     Total:     3.2757


*** tstop() called on node54.bme.utexas.edu at Mon Sep  9 22:38:33 2019
Module time:
	user time   =      47.13 seconds =       0.79 minutes
	system time =       0.82 seconds =       0.01 minutes
	total time  =         13 seconds =       0.22 minutes
Total time:
	user time   =     131.26 seconds =       2.19 minutes
	system time =       2.31 seconds =       0.04 minutes
	total time  =         36 seconds =       0.60 minutes

  //>>>>>>>>>>>>>>>>>>>>>>>>>>>>>>>>>>>//
  //            Monomer B HF           //
  //<<<<<<<<<<<<<<<<<<<<<<<<<<<<<<<<<<<//


*** tstart() called on node54.bme.utexas.edu
*** at Mon Sep  9 22:38:33 2019

   => Loading Basis Set <=

    Name: AUG-CC-PVTZ
    Role: ORBITAL
    Keyword: BASIS
    atoms 1, 8                    entry C          line   235 file /home/xy3866/psi4conda/share/psi4/basis/aug-cc-pvtz.gbs 
    atoms 2, 4, 6-7, 9, 11, 13-14 entry H          line    36 file /home/xy3866/psi4conda/share/psi4/basis/aug-cc-pvtz.gbs 
    atoms 3, 5, 10, 12            entry N          line   281 file /home/xy3866/psi4conda/share/psi4/basis/aug-cc-pvtz.gbs 


         ---------------------------------------------------------
                                   SCF
               by Justin Turney, Rob Parrish, Andy Simmonett
                          and Daniel G. A. Smith
                              RHF Reference
                        4 Threads,  30517 MiB Core
         ---------------------------------------------------------

  ==> Geometry <==

    Molecular point group: c1
    Full point group: C1

    Geometry (in Angstrom), charge = 0, multiplicity = 1:

       Center              X                  Y                   Z               Mass       
    ------------   -----------------  -----------------  -----------------  -----------------
      Gh(C)           2.176242700000    -0.206064548856     0.000000886638    12.000000000000
      Gh(H)           3.267144700000    -0.210898548856    -0.000000113362     1.007825032230
      Gh(N)           1.466878700000    -1.283407548856    -0.000000113362    14.003074004430
      Gh(H)           2.085965700000    -2.085390548856    -0.000001113362     1.007825032230
      Gh(N)           1.639806700000     1.028319451144    -0.000000113362    14.003074004430
      Gh(H)           0.625211700000     1.165621451144    -0.000000113362     1.007825032230
      Gh(H)           2.246245700000     1.823428451144    -0.000001113362     1.007825032230
         C           -2.176242700000     0.206064551144    -0.000000113362    12.000000000000
         H           -3.267144700000     0.210898551144    -0.000000113362     1.007825032230
         N           -1.466878700000     1.283407551144    -0.000000113362    14.003074004430
         H           -2.085965700000     2.085390451144    -0.000000113362     1.007825032230
         N           -1.639806700000    -1.028319448856    -0.000000113362    14.003074004430
         H           -0.625211700000    -1.165621448856    -0.000000113362     1.007825032230
         H           -2.246245700000    -1.823428448856    -0.000000113362     1.007825032230

  Running in c1 symmetry.

  Rotational constants: A =      0.18002  B =      0.05775  C =      0.04372 [cm^-1]
  Rotational constants: A =   5396.82269  B =   1731.37717  C =   1310.84085 [MHz]
  Nuclear repulsion =   72.180709048259743

  Charge       = 0
  Multiplicity = 1
  Electrons    = 24
  Nalpha       = 12
  Nbeta        = 12

  ==> Algorithm <==

  SCF Algorithm Type is DF.
  DIIS enabled.
  MOM disabled.
  Fractional occupation disabled.
  Guess Type is SAD.
  Energy threshold   = 1.00e-08
  Density threshold  = 1.00e-08
  Integral threshold = 0.00e+00

  ==> Primary Basis <==

  Basis Set: AUG-CC-PVTZ
    Blend: AUG-CC-PVTZ
    Number of shells: 156
    Number of basis function: 460
    Number of Cartesian functions: 530
    Spherical Harmonics?: true
    Max angular momentum: 3

   => Loading Basis Set <=

    Name: (AUG-CC-PVTZ AUX)
    Role: JKFIT
    Keyword: DF_BASIS_SCF
    atoms 1, 8                    entry C          line   162 file /home/xy3866/psi4conda/share/psi4/basis/aug-cc-pvtz-jkfit.gbs 
    atoms 2, 4, 6-7, 9, 11, 13-14 entry H          line    70 file /home/xy3866/psi4conda/share/psi4/basis/aug-cc-pvtz-jkfit.gbs 
    atoms 3, 5, 10, 12            entry N          line   224 file /home/xy3866/psi4conda/share/psi4/basis/aug-cc-pvtz-jkfit.gbs 

  ==> Pre-Iterations <==

   -------------------------------------------------------
    Irrep   Nso     Nmo     Nalpha   Nbeta   Ndocc  Nsocc
   -------------------------------------------------------
     A        460     460       0       0       0       0
   -------------------------------------------------------
    Total     460     460      12      12      12       0
   -------------------------------------------------------

  ==> Integral Setup <==

  ==> DiskDFJK: Density-Fitted J/K Matrices <==

    J tasked:                  Yes
    K tasked:                  Yes
    wK tasked:                  No
    OpenMP threads:              4
    Integrals threads:           4
    Memory [MiB]:            22888
    Algorithm:                Core
    Integral Cache:           LOAD
    Schwarz Cutoff:          1E-12
    Fitting Condition:       1E-10

   => Auxiliary Basis Set <=

  Basis Set: (AUG-CC-PVTZ AUX)
    Blend: AUG-CC-PVTZ-JKFIT
    Number of shells: 292
    Number of basis function: 992
    Number of Cartesian functions: 1226
    Spherical Harmonics?: true
    Max angular momentum: 4

  Minimum eigenvalue in the overlap matrix is 2.0156601466E-05.
  Using Symmetric Orthogonalization.

  SCF Guess: Superposition of Atomic Densities via on-the-fly atomic UHF.

  ==> Iterations <==

                           Total Energy        Delta E     RMS |[F,P]|

   @DF-RHF iter SAD:  -148.38772528660374   -1.48388e+02   0.00000e+00 
   @DF-RHF iter   1:  -148.99743597649010   -6.09711e-01   1.19322e-03 DIIS
   @DF-RHF iter   2:  -149.09943410038309   -1.01998e-01   7.04005e-04 DIIS
   @DF-RHF iter   3:  -149.14135395314884   -4.19199e-02   9.82753e-05 DIIS
   @DF-RHF iter   4:  -149.14276910779157   -1.41515e-03   4.86449e-05 DIIS
   @DF-RHF iter   5:  -149.14304668622077   -2.77578e-04   8.88043e-06 DIIS
   @DF-RHF iter   6:  -149.14307533505189   -2.86488e-05   4.19437e-06 DIIS
   @DF-RHF iter   7:  -149.14308004086885   -4.70582e-06   1.68827e-06 DIIS
   @DF-RHF iter   8:  -149.14308098256794   -9.41699e-07   4.98565e-07 DIIS
   @DF-RHF iter   9:  -149.14308106837692   -8.58090e-08   1.52276e-07 DIIS
   @DF-RHF iter  10:  -149.14308107594780   -7.57089e-09   3.78216e-08 DIIS
   @DF-RHF iter  11:  -149.14308107642134   -4.73534e-10   7.22447e-09 DIIS
  Energy and wave function converged.


  ==> Post-Iterations <==

    Orbital Energies [Eh]
    ---------------------

    Doubly Occupied:                                                      

       1A    -15.581658     2A    -15.519545     3A    -11.314763  
       4A     -1.259003     5A     -1.137051     6A     -0.829941  
       7A     -0.745815     8A     -0.639653     9A     -0.615825  
      10A     -0.530069    11A     -0.419649    12A     -0.359460  

    Virtual:                                                              

      13A      0.021303    14A      0.030235    15A      0.036711  
      16A      0.049618    17A      0.051234    18A      0.070072  
      19A      0.074769    20A      0.074978    21A      0.086346  
      22A      0.086971    23A      0.096651    24A      0.112531  
      25A      0.126469    26A      0.127220    27A      0.130277  
      28A      0.135366    29A      0.138459    30A      0.140905  
      31A      0.148753    32A      0.160183    33A      0.163476  
      34A      0.166660    35A      0.187096    36A      0.191725  
      37A      0.197181    38A      0.211053    39A      0.219764  
      40A      0.221894    41A      0.226284    42A      0.239048  
      43A      0.248286    44A      0.252008    45A      0.272757  
      46A      0.287613    47A      0.294985    48A      0.296007  
      49A      0.304549    50A      0.304704    51A      0.313751  
      52A      0.315155    53A      0.331936    54A      0.341505  
      55A      0.346513    56A      0.355138    57A      0.360146  
      58A      0.367392    59A      0.368331    60A      0.371258  
      61A      0.372334    62A      0.378072    63A      0.385857  
      64A      0.390812    65A      0.395311    66A      0.397922  
      67A      0.412378    68A      0.417127    69A      0.430735  
      70A      0.432980    71A      0.436551    72A      0.451963  
      73A      0.455437    74A      0.456090    75A      0.470276  
      76A      0.475942    77A      0.495893    78A      0.503395  
      79A      0.504839    80A      0.515369    81A      0.529133  
      82A      0.532881    83A      0.547123    84A      0.555326  
      85A      0.572229    86A      0.585813    87A      0.588843  
      88A      0.612103    89A      0.618281    90A      0.625722  
      91A      0.631679    92A      0.636645    93A      0.645764  
      94A      0.650509    95A      0.674568    96A      0.688347  
      97A      0.694074    98A      0.701269    99A      0.708694  
     100A      0.729120   101A      0.736642   102A      0.754355  
     103A      0.755365   104A      0.767579   105A      0.777686  
     106A      0.780070   107A      0.791380   108A      0.792948  
     109A      0.805978   110A      0.812666   111A      0.812876  
     112A      0.829905   113A      0.830703   114A      0.835373  
     115A      0.851592   116A      0.864437   117A      0.871041  
     118A      0.889226   119A      0.896159   120A      0.904183  
     121A      0.911340   122A      0.924740   123A      0.928731  
     124A      0.936234   125A      0.946320   126A      0.946537  
     127A      0.959858   128A      0.978222   129A      0.986168  
     130A      0.987049   131A      0.995598   132A      1.006395  
     133A      1.006703   134A      1.018847   135A      1.023271  
     136A      1.035959   137A      1.052720   138A      1.064712  
     139A      1.072865   140A      1.076514   141A      1.081578  
     142A      1.085205   143A      1.097490   144A      1.112552  
     145A      1.112902   146A      1.115738   147A      1.123739  
     148A      1.128670   149A      1.152906   150A      1.157458  
     151A      1.185680   152A      1.191983   153A      1.210611  
     154A      1.215937   155A      1.225908   156A      1.234014  
     157A      1.248401   158A      1.258291   159A      1.266870  
     160A      1.270729   161A      1.275780   162A      1.302050  
     163A      1.302551   164A      1.306225   165A      1.335398  
     166A      1.340885   167A      1.349379   168A      1.371330  
     169A      1.374903   170A      1.385396   171A      1.393691  
     172A      1.406445   173A      1.418283   174A      1.440702  
     175A      1.460403   176A      1.461867   177A      1.472063  
     178A      1.480768   179A      1.483280   180A      1.489735  
     181A      1.492665   182A      1.504876   183A      1.519221  
     184A      1.532416   185A      1.537467   186A      1.567079  
     187A      1.583729   188A      1.584341   189A      1.598925  
     190A      1.601178   191A      1.626096   192A      1.628235  
     193A      1.640718   194A      1.655763   195A      1.670733  
     196A      1.673778   197A      1.687273   198A      1.693767  
     199A      1.705801   200A      1.724012   201A      1.739606  
     202A      1.743539   203A      1.750708   204A      1.771024  
     205A      1.772834   206A      1.786951   207A      1.788285  
     208A      1.800978   209A      1.817126   210A      1.819400  
     211A      1.851932   212A      1.879712   213A      1.885397  
     214A      1.910537   215A      1.919133   216A      1.944893  
     217A      1.948429   218A      1.964287   219A      1.982002  
     220A      1.995217   221A      2.024557   222A      2.039117  
     223A      2.070324   224A      2.076417   225A      2.082519  
     226A      2.109552   227A      2.124581   228A      2.135471  
     229A      2.156703   230A      2.169216   231A      2.185939  
     232A      2.218257   233A      2.226799   234A      2.257123  
     235A      2.260464   236A      2.287768   237A      2.311492  
     238A      2.321746   239A      2.342156   240A      2.354991  
     241A      2.359858   242A      2.364535   243A      2.391429  
     244A      2.400325   245A      2.414844   246A      2.434230  
     247A      2.435171   248A      2.464894   249A      2.465402  
     250A      2.507755   251A      2.528675   252A      2.545112  
     253A      2.555987   254A      2.561994   255A      2.592275  
     256A      2.620094   257A      2.642460   258A      2.648334  
     259A      2.663502   260A      2.683688   261A      2.696731  
     262A      2.712545   263A      2.733571   264A      2.739988  
     265A      2.783704   266A      2.808206   267A      2.846562  
     268A      2.850388   269A      2.865992   270A      2.884424  
     271A      2.961350   272A      2.969084   273A      2.974159  
     274A      3.002039   275A      3.051095   276A      3.066130  
     277A      3.120328   278A      3.138918   279A      3.165275  
     280A      3.170348   281A      3.179765   282A      3.235694  
     283A      3.281738   284A      3.319008   285A      3.381157  
     286A      3.415304   287A      3.415553   288A      3.491129  
     289A      3.505041   290A      3.519247   291A      3.604953  
     292A      3.619824   293A      3.691449   294A      3.692552  
     295A      3.786815   296A      3.795499   297A      3.817334  
     298A      3.826855   299A      3.859111   300A      3.878419  
     301A      3.941535   302A      3.998647   303A      4.021749  
     304A      4.065339   305A      4.077146   306A      4.086254  
     307A      4.120494   308A      4.125899   309A      4.126923  
     310A      4.170848   311A      4.199058   312A      4.223292  
     313A      4.237109   314A      4.272041   315A      4.310538  
     316A      4.321255   317A      4.369017   318A      4.378133  
     319A      4.420933   320A      4.429836   321A      4.445253  
     322A      4.446286   323A      4.465243   324A      4.481030  
     325A      4.539632   326A      4.543374   327A      4.569291  
     328A      4.598686   329A      4.609982   330A      4.651219  
     331A      4.666499   332A      4.677196   333A      4.704863  
     334A      4.713842   335A      4.742448   336A      4.747315  
     337A      4.752993   338A      4.790960   339A      4.818523  
     340A      4.854337   341A      4.864097   342A      4.868648  
     343A      4.883740   344A      4.890303   345A      4.894809  
     346A      4.906669   347A      4.919954   348A      4.938045  
     349A      4.974146   350A      4.979150   351A      4.993592  
     352A      4.997946   353A      5.035181   354A      5.042195  
     355A      5.064785   356A      5.083098   357A      5.103664  
     358A      5.171724   359A      5.201554   360A      5.203139  
     361A      5.211462   362A      5.218009   363A      5.249168  
     364A      5.277836   365A      5.296928   366A      5.322075  
     367A      5.331941   368A      5.333786   369A      5.369234  
     370A      5.392070   371A      5.427001   372A      5.442664  
     373A      5.466649   374A      5.473353   375A      5.491459  
     376A      5.502431   377A      5.519002   378A      5.534794  
     379A      5.564491   380A      5.597140   381A      5.642434  
     382A      5.710074   383A      5.724286   384A      5.737116  
     385A      5.766977   386A      5.769272   387A      5.790461  
     388A      5.826259   389A      5.846729   390A      5.882232  
     391A      5.924405   392A      5.958630   393A      5.978493  
     394A      6.028675   395A      6.071110   396A      6.086733  
     397A      6.116737   398A      6.118843   399A      6.130135  
     400A      6.193267   401A      6.208178   402A      6.219631  
     403A      6.239339   404A      6.281524   405A      6.282303  
     406A      6.386558   407A      6.389868   408A      6.429475  
     409A      6.451881   410A      6.551109   411A      6.570172  
     412A      6.596453   413A      6.604630   414A      6.608194  
     415A      6.665344   416A      6.686615   417A      6.703728  
     418A      6.745766   419A      6.851951   420A      6.855226  
     421A      6.901789   422A      6.932271   423A      7.039584  
     424A      7.061356   425A      7.267650   426A      7.359156  
     427A      7.409860   428A      7.459408   429A      7.551237  
     430A      7.592624   431A      7.602002   432A      7.656870  
     433A      7.667554   434A      7.699135   435A      7.747134  
     436A      7.752848   437A      7.851315   438A      7.964693  
     439A      8.172942   440A      8.310024   441A      8.447162  
     442A      8.572719   443A      9.000745   444A      9.321611  
     445A      9.387466   446A      9.469843   447A      9.514893  
     448A     10.178442   449A     10.744570   450A     11.236806  
     451A     11.622639   452A     11.766764   453A     12.094127  
     454A     12.868136   455A     17.223470   456A     17.477136  
     457A     18.928024   458A     51.645316   459A     59.378191  
     460A     62.488105  

    Final Occupation by Irrep:
              A 
    DOCC [    12 ]

  @DF-RHF Final Energy:  -149.14308107642134

   => Energetics <=

    Nuclear Repulsion Energy =             72.1807090482597431
    One-Electron Energy =                -344.7427134168511884
    Two-Electron Energy =                 123.4189232921700921
    Total Energy =                       -149.1430810764213390

Computation Completed


Properties will be evaluated at   0.000000,   0.000000,   0.000000 [a0]

Properties computed using the SCF density matrix

  Nuclear Dipole Moment: [e a0]
     X:   -81.3127      Y:     4.4016      Z:    -0.0000

  Electronic Dipole Moment: [e a0]
     X:    80.4903      Y:    -5.3939      Z:     0.0000

  Dipole Moment: [e a0]
     X:    -0.8224      Y:    -0.9922      Z:     0.0000     Total:     1.2888

  Dipole Moment: [D]
     X:    -2.0904      Y:    -2.5220      Z:     0.0000     Total:     3.2757


*** tstop() called on node54.bme.utexas.edu at Mon Sep  9 22:38:46 2019
Module time:
	user time   =      47.91 seconds =       0.80 minutes
	system time =       0.93 seconds =       0.02 minutes
	total time  =         13 seconds =       0.22 minutes
Total time:
	user time   =     179.20 seconds =       2.99 minutes
	system time =       3.24 seconds =       0.05 minutes
	total time  =         49 seconds =       0.82 minutes
  Constructing Basis Sets for SAPT...

   => Loading Basis Set <=

    Name: (AUG-CC-PVTZ AUX)
    Role: RIFIT
    Keyword: DF_BASIS_SAPT
    atoms 1, 8                    entry C          line   148 file /home/xy3866/psi4conda/share/psi4/basis/aug-cc-pvtz-ri.gbs 
    atoms 2, 4, 6-7, 9, 11, 13-14 entry H          line    30 file /home/xy3866/psi4conda/share/psi4/basis/aug-cc-pvtz-ri.gbs 
    atoms 3, 5, 10, 12            entry N          line   206 file /home/xy3866/psi4conda/share/psi4/basis/aug-cc-pvtz-ri.gbs 


  //>>>>>>>>>>>>>>>>>>>>>>>>>>>>>>>>>>>//
  //               SAPT2+              //
  //<<<<<<<<<<<<<<<<<<<<<<<<<<<<<<<<<<<//


*** tstart() called on node54.bme.utexas.edu
*** at Mon Sep  9 22:38:46 2019

        SAPT2+  
    Ed Hohenstein
     6 June 2009

      Orbital Information
  --------------------------
    NSO        =       460
    NMO        =       460
    NRI        =      1004
    NOCC A     =        12
    NOCC B     =        12
    FOCC A     =         3
    FOCC B     =         3
    NVIR A     =       448
    NVIR B     =       448

    Estimated memory usage: 2305.7 MB

    Natural Orbital Cutoff:   1.000E-06
    Disp(T3) Truncation:            Yes
    CCD (vv|vv) Truncation:         Yes
    MBPT T2 Truncation:             Yes

    Monomer A: 249 virtual orbitals dropped
    Monomer B: 249 virtual orbitals dropped

    Elst10,r            =    -0.032231803342 [Eh]
    Exch10 (S^2)        =     0.025724763575 [Eh]
    Exch10              =     0.025989931286 [Eh]
    Ind20,r (A<-B)      =    -0.006849482861 [Eh]
    Ind20,r (B<-A)      =    -0.006849482683 [Eh]
    Ind20,r             =    -0.013698965545 [Eh]
    Exch-Ind20,r (A<-B) =     0.003398962194 [Eh]
    Exch-Ind20,r (B<-A) =     0.003398962039 [Eh]
    Exch-Ind20,r        =     0.006797924233 [Eh]
    Disp20              =    -0.011414802708 [Eh]
    Disp20 (NO)         =    -0.009925807687 [Eh]
    Exch-Disp20         =     0.002076137721 [Eh]
    Elst12,r            =     0.000178227955 [Eh]
    Exch11              =     0.000284354031 [Eh]
    Exch12              =     0.002912207110 [Eh]
    Ind22               =    -0.001469255863 [Eh]
    Disp21              =     0.000694660313 [Eh]
    Disp22 (SDQ)        =     0.000153140687 [Eh]

    (i =   1 of   9)         33 seconds
    (i =   2 of   9)         66 seconds
    (i =   3 of   9)         98 seconds
    (i =   4 of   9)        131 seconds
    (i =   5 of   9)        163 seconds
    (i =   6 of   9)        196 seconds
    (i =   7 of   9)        229 seconds
    (i =   8 of   9)        261 seconds
    (i =   9 of   9)        294 seconds

    Disp220 (T)         =    -0.000907892366 [Eh]

    (i =   1 of   9)         34 seconds
    (i =   2 of   9)         67 seconds
    (i =   3 of   9)         99 seconds
    (i =   4 of   9)        132 seconds
    (i =   5 of   9)        164 seconds
    (i =   6 of   9)        196 seconds
    (i =   7 of   9)        229 seconds
    (i =   8 of   9)        261 seconds
    (i =   9 of   9)        293 seconds

    Disp202 (T)         =    -0.000907892361 [Eh]

    Disp22 (T)          =    -0.001815784727 [Eh]

    Est. Disp220 (T)    =    -0.001044087551 [Eh]
    Est. Disp202 (T)    =    -0.001044087545 [Eh]

    Est. Disp22 (T)     =    -0.002088175096 [Eh]

    SAPT Results 
  --------------------------------------------------------------------------------------------------------
    Electrostatics                -32.05357539 [mEh]     -20.11392222 [kcal/mol]     -84.15665059 [kJ/mol]
      Elst10,r                    -32.23180334 [mEh]     -20.22576195 [kcal/mol]     -84.62458802 [kJ/mol]
      Elst12,r                      0.17822795 [mEh]       0.11183973 [kcal/mol]       0.46793743 [kJ/mol]

    Exchange                       29.18649243 [mEh]      18.31480050 [kcal/mol]      76.62912531 [kJ/mol]
      Exch10                       25.98993129 [mEh]      16.30892810 [kcal/mol]      68.23655519 [kJ/mol]
      Exch10(S^2)                  25.72476357 [mEh]      16.14253285 [kcal/mol]      67.54035746 [kJ/mol]
      Exch11(S^2)                   0.28435403 [mEh]       0.17843485 [kcal/mol]       0.74657141 [kJ/mol]
      Exch12(S^2)                   2.91220711 [mEh]       1.82743755 [kcal/mol]       7.64599871 [kJ/mol]

    Induction                     -12.24209992 [mEh]      -7.68203368 [kcal/mol]     -32.14162892 [kJ/mol]
      Ind20,r                     -13.69896554 [mEh]      -8.59623066 [kcal/mol]     -35.96662908 [kJ/mol]
      Ind22                        -1.46925586 [mEh]      -0.92197197 [kcal/mol]      -3.85753074 [kJ/mol]
      Exch-Ind20,r                  6.79792423 [mEh]       4.26576186 [kcal/mol]      17.84794762 [kJ/mol]
      Exch-Ind22                    0.72909812 [mEh]       0.45751598 [kcal/mol]       1.91424685 [kJ/mol]
      delta HF,r (2)               -4.60090087 [mEh]      -2.88710888 [kcal/mol]     -12.07966357 [kJ/mol]

    Dispersion                    -10.57903908 [mEh]      -6.63844725 [kcal/mol]     -27.77526329 [kJ/mol]
      Disp20                      -11.41480271 [mEh]      -7.16289684 [kcal/mol]     -29.96956038 [kJ/mol]
      Disp21                        0.69466031 [mEh]       0.43590593 [kcal/mol]       1.82383040 [kJ/mol]
      Disp22 (SDQ)                  0.15314069 [mEh]       0.09609723 [kcal/mol]       0.40207082 [kJ/mol]
      Disp22 (T)                   -1.81578473 [mEh]      -1.13942212 [kcal/mol]      -4.76734215 [kJ/mol]
      Est. Disp22 (T)              -2.08817510 [mEh]      -1.31034966 [kcal/mol]      -5.48250296 [kJ/mol]
      Exch-Disp20                   2.07613772 [mEh]       1.30279609 [kcal/mol]       5.45089883 [kJ/mol]

  Total HF                        -17.74381424 [mEh]     -11.13441153 [kcal/mol]     -46.58637786 [kJ/mol]
  Total SAPT0                     -27.08247922 [mEh]     -16.99451229 [kcal/mol]     -71.10503941 [kJ/mol]
  Total SAPT2                     -24.44784787 [mEh]     -15.34125615 [kcal/mol]     -64.18781574 [kJ/mol]
  Total SAPT2+                    -25.68822197 [mEh]     -16.11960265 [kcal/mol]     -67.44441748 [kJ/mol]

  Special recipe for scaled SAPT0 (see Manual):
    Electrostatics sSAPT0         -32.23180334 [mEh]     -20.22576195 [kcal/mol]     -84.62458802 [kJ/mol]
    Exchange sSAPT0                25.98993129 [mEh]      16.30892810 [kcal/mol]      68.23655519 [kJ/mol]
    Induction sSAPT0              -11.28955134 [mEh]      -7.08430042 [kcal/mol]     -29.64071296 [kJ/mol]
    Dispersion sSAPT0              -9.27379921 [mEh]      -5.81939686 [kcal/mol]     -24.34835647 [kJ/mol]
  Total sSAPT0                    -26.80522261 [mEh]     -16.82053113 [kcal/mol]     -70.37710226 [kJ/mol]
  --------------------------------------------------------------------------------------------------------

*** tstop() called on node54.bme.utexas.edu at Mon Sep  9 22:53:46 2019
Module time:
	user time   =    3297.50 seconds =      54.96 minutes
	system time =      62.00 seconds =       1.03 minutes
	total time  =        900 seconds =      15.00 minutes
Total time:
	user time   =    3476.98 seconds =      57.95 minutes
	system time =      65.24 seconds =       1.09 minutes
	total time  =        949 seconds =      15.82 minutes

    Psi4 stopped on: Monday, 09 September 2019 10:53PM
    Psi4 wall time for execution: 0:15:49.83

*** Psi4 exiting successfully. Buy a developer a beer!
