
    -----------------------------------------------------------------------
          Psi4: An Open-Source Ab Initio Electronic Structure Package
                               Psi4 1.3.2 release

                         Git: Rev {HEAD} ecbda83 


    R. M. Parrish, L. A. Burns, D. G. A. Smith, A. C. Simmonett,
    A. E. DePrince III, E. G. Hohenstein, U. Bozkaya, A. Yu. Sokolov,
    R. Di Remigio, R. M. Richard, J. F. Gonthier, A. M. James,
    H. R. McAlexander, A. Kumar, M. Saitow, X. Wang, B. P. Pritchard,
    P. Verma, H. F. Schaefer III, K. Patkowski, R. A. King, E. F. Valeev,
    F. A. Evangelista, J. M. Turney, T. D. Crawford, and C. D. Sherrill,
    J. Chem. Theory Comput. 13(7) pp 3185--3197 (2017).
    (doi: 10.1021/acs.jctc.7b00174)


                         Additional Contributions by
    P. Kraus, H. Kruse, M. H. Lechner, M. C. Schieber, R. A. Shaw,
    A. Alenaizan, R. Galvelis, Z. L. Glick, S. Lehtola, and J. P. Misiewicz

    -----------------------------------------------------------------------


    Psi4 started on: Monday, 09 September 2019 04:03PM

    Process ID: 47356
    Host:       node54.bme.utexas.edu
    PSIDATADIR: /home/xy3866/psi4conda/share/psi4
    Memory:     500.0 MiB
    Threads:    4
    
  ==> Input File <==

--------------------------------------------------------------------------
#psi4
#
memory 32 gb

molecule  {
0 1
  C       -2.0482690     0.2828850     0.0000130
  H       -3.1457830     0.3491130    -0.0000080
  O       -1.3512910     1.2933720    -0.0000010
  N       -1.5923150    -0.9782630     0.0000040
  H       -0.5837530    -1.1752650     0.0000030
  H       -2.2528990    -1.7321960    -0.0000070
--
0 1
  C        1.1885468    -0.1590285     0.0000042
  H        2.2784588    -0.1852965     0.0000002
  N        0.4566408    -1.2206875     0.0000021
  H        1.0564058    -2.0370065    -0.0000038
  N        0.6763718     1.0859135     0.0000002
  H       -0.3302682     1.2358895    -0.0000008
  H        1.2922589     1.8734665    -0.0000049
units angstrom
no_reorient  #important for SAPT in psi4, default
symmetry c1  #important for SAPT in psi4, default
}

set {
basis aug-cc-pVTZ
scf_type DF
freeze_core True
}
energy('sapt2+')
--------------------------------------------------------------------------

  Memory set to  29.802 GiB by Python driver.

  //>>>>>>>>>>>>>>>>>>>>>>>>>>>>>>>>>>>//
  //              Dimer HF             //
  //<<<<<<<<<<<<<<<<<<<<<<<<<<<<<<<<<<<//


*** tstart() called on node54.bme.utexas.edu
*** at Mon Sep  9 16:03:26 2019

   => Loading Basis Set <=

    Name: AUG-CC-PVTZ
    Role: ORBITAL
    Keyword: BASIS
    atoms 1, 7                 entry C          line   235 file /home/xy3866/psi4conda/share/psi4/basis/aug-cc-pvtz.gbs 
    atoms 2, 5-6, 8, 10, 12-13 entry H          line    36 file /home/xy3866/psi4conda/share/psi4/basis/aug-cc-pvtz.gbs 
    atoms 3                    entry O          line   327 file /home/xy3866/psi4conda/share/psi4/basis/aug-cc-pvtz.gbs 
    atoms 4, 9, 11             entry N          line   281 file /home/xy3866/psi4conda/share/psi4/basis/aug-cc-pvtz.gbs 


         ---------------------------------------------------------
                                   SCF
               by Justin Turney, Rob Parrish, Andy Simmonett
                          and Daniel G. A. Smith
                              RHF Reference
                        4 Threads,  30517 MiB Core
         ---------------------------------------------------------

  ==> Geometry <==

    Molecular point group: c1
    Full point group: C1

    Geometry (in Angstrom), charge = 0, multiplicity = 1:

       Center              X                  Y                   Z               Mass       
    ------------   -----------------  -----------------  -----------------  -----------------
         C           -1.598444668574     0.227827732949     0.000010112498    12.000000000000
         H           -2.695958668574     0.294055732949    -0.000010887502     1.007825032230
         O           -0.901466668574     1.238314732949    -0.000003887502    15.994914619570
         N           -1.142490668574    -1.033320267051     0.000001112498    14.003074004430
         H           -0.133928668574    -1.230322267051     0.000000112498     1.007825032230
         H           -1.803074668574    -1.787253267051    -0.000009887502     1.007825032230
         C            1.638371131426    -0.214085767051     0.000001312498    12.000000000000
         H            2.728283131426    -0.240353767051    -0.000002687502     1.007825032230
         N            0.906465131426    -1.275744767051    -0.000000787502    14.003074004430
         H            1.506230131426    -2.092063767051    -0.000006687502     1.007825032230
         N            1.126196131426     1.030856232949    -0.000002687502    14.003074004430
         H            0.119556131426     1.180832232949    -0.000003687502     1.007825032230
         H            1.742083231426     1.818409232949    -0.000007787502     1.007825032230

  Running in c1 symmetry.

  Rotational constants: A =      0.18466  B =      0.11393  C =      0.07046 [cm^-1]
  Rotational constants: A =   5536.09764  B =   3415.45263  C =   2112.29102 [MHz]
  Nuclear repulsion =  256.629596380468058

  Charge       = 0
  Multiplicity = 1
  Electrons    = 48
  Nalpha       = 24
  Nbeta        = 24

  ==> Algorithm <==

  SCF Algorithm Type is DF.
  DIIS enabled.
  MOM disabled.
  Fractional occupation disabled.
  Guess Type is SAD.
  Energy threshold   = 1.00e-08
  Density threshold  = 1.00e-08
  Integral threshold = 0.00e+00

  ==> Primary Basis <==

  Basis Set: AUG-CC-PVTZ
    Blend: AUG-CC-PVTZ
    Number of shells: 147
    Number of basis function: 437
    Number of Cartesian functions: 505
    Spherical Harmonics?: true
    Max angular momentum: 3

   => Loading Basis Set <=

    Name: (AUG-CC-PVTZ AUX)
    Role: JKFIT
    Keyword: DF_BASIS_SCF
    atoms 1, 7                 entry C          line   162 file /home/xy3866/psi4conda/share/psi4/basis/aug-cc-pvtz-jkfit.gbs 
    atoms 2, 5-6, 8, 10, 12-13 entry H          line    70 file /home/xy3866/psi4conda/share/psi4/basis/aug-cc-pvtz-jkfit.gbs 
    atoms 3                    entry O          line   286 file /home/xy3866/psi4conda/share/psi4/basis/aug-cc-pvtz-jkfit.gbs 
    atoms 4, 9, 11             entry N          line   224 file /home/xy3866/psi4conda/share/psi4/basis/aug-cc-pvtz-jkfit.gbs 

  ==> Pre-Iterations <==

   -------------------------------------------------------
    Irrep   Nso     Nmo     Nalpha   Nbeta   Ndocc  Nsocc
   -------------------------------------------------------
     A        437     437       0       0       0       0
   -------------------------------------------------------
    Total     437     437      24      24      24       0
   -------------------------------------------------------

  ==> Integral Setup <==

  ==> DiskDFJK: Density-Fitted J/K Matrices <==

    J tasked:                  Yes
    K tasked:                  Yes
    wK tasked:                  No
    OpenMP threads:              4
    Integrals threads:           4
    Memory [MiB]:            22888
    Algorithm:                Core
    Integral Cache:           SAVE
    Schwarz Cutoff:          1E-12
    Fitting Condition:       1E-10

   => Auxiliary Basis Set <=

  Basis Set: (AUG-CC-PVTZ AUX)
    Blend: AUG-CC-PVTZ-JKFIT
    Number of shells: 278
    Number of basis function: 946
    Number of Cartesian functions: 1171
    Spherical Harmonics?: true
    Max angular momentum: 4

  Minimum eigenvalue in the overlap matrix is 1.0011537958E-05.
  Using Symmetric Orthogonalization.

  SCF Guess: Superposition of Atomic Densities via on-the-fly atomic UHF.

  ==> Iterations <==

                           Total Energy        Delta E     RMS |[F,P]|

   @DF-RHF iter SAD:  -317.92786477145984   -3.17928e+02   0.00000e+00 
   @DF-RHF iter   1:  -317.67582529433537    2.52039e-01   1.87352e-03 DIIS
   @DF-RHF iter   2:  -317.86647287312400   -1.90648e-01   1.12839e-03 DIIS
   @DF-RHF iter   3:  -317.95889348008814   -9.24206e-02   1.32727e-04 DIIS
   @DF-RHF iter   4:  -317.96115358073945   -2.26010e-03   3.35622e-05 DIIS
   @DF-RHF iter   5:  -317.96130358224946   -1.50002e-04   1.07436e-05 DIIS
   @DF-RHF iter   6:  -317.96131984084690   -1.62586e-05   3.44856e-06 DIIS
   @DF-RHF iter   7:  -317.96132187880545   -2.03796e-06   1.10609e-06 DIIS
   @DF-RHF iter   8:  -317.96132217267802   -2.93873e-07   5.46109e-07 DIIS
   @DF-RHF iter   9:  -317.96132223522756   -6.25495e-08   1.61419e-07 DIIS
   @DF-RHF iter  10:  -317.96132224572312   -1.04956e-08   5.53553e-08 DIIS
   @DF-RHF iter  11:  -317.96132224664916   -9.26036e-10   2.94071e-08 DIIS
   @DF-RHF iter  12:  -317.96132224687273   -2.23565e-10   9.29004e-09 DIIS
  Energy and wave function converged.


  ==> Post-Iterations <==

    Orbital Energies [Eh]
    ---------------------

    Doubly Occupied:                                                      

       1A    -20.520472     2A    -15.510450     3A    -15.506381  
       4A    -15.501535     5A    -11.346858     6A    -11.320052  
       7A     -1.432270     8A     -1.267578     9A     -1.203498  
      10A     -1.128607    11A     -0.924941    12A     -0.812429  
      13A     -0.783455    14A     -0.749233    15A     -0.701208  
      16A     -0.636956    17A     -0.616980    18A     -0.584910  
      19A     -0.556509    20A     -0.514743    21A     -0.432500  
      22A     -0.408447    23A     -0.356981    24A     -0.340925  

    Virtual:                                                              

      25A      0.026673    26A      0.034186    27A      0.039345  
      28A      0.052319    29A      0.056130    30A      0.072103  
      31A      0.077374    32A      0.084919    33A      0.091075  
      34A      0.109633    35A      0.123358    36A      0.127750  
      37A      0.134178    38A      0.134688    39A      0.143469  
      40A      0.146574    41A      0.150277    42A      0.158731  
      43A      0.166253    44A      0.175749    45A      0.178630  
      46A      0.197560    47A      0.198852    48A      0.208830  
      49A      0.210167    50A      0.213366    51A      0.251943  
      52A      0.254069    53A      0.256095    54A      0.275500  
      55A      0.277997    56A      0.284952    57A      0.296721  
      58A      0.306917    59A      0.315179    60A      0.323078  
      61A      0.330910    62A      0.335790    63A      0.335809  
      64A      0.344792    65A      0.345793    66A      0.360454  
      67A      0.367798    68A      0.368678    69A      0.377048  
      70A      0.377259    71A      0.390931    72A      0.399189  
      73A      0.413925    74A      0.418261    75A      0.430377  
      76A      0.440051    77A      0.450043    78A      0.450117  
      79A      0.453517    80A      0.471348    81A      0.473440  
      82A      0.489198    83A      0.506459    84A      0.508131  
      85A      0.516464    86A      0.537257    87A      0.541207  
      88A      0.554823    89A      0.563629    90A      0.570139  
      91A      0.573146    92A      0.587656    93A      0.590132  
      94A      0.599147    95A      0.611273    96A      0.628469  
      97A      0.649944    98A      0.661222    99A      0.662846  
     100A      0.681379   101A      0.687839   102A      0.701453  
     103A      0.702222   104A      0.713628   105A      0.722348  
     106A      0.723861   107A      0.732673   108A      0.755144  
     109A      0.758513   110A      0.768530   111A      0.773710  
     112A      0.792023   113A      0.804546   114A      0.814908  
     115A      0.823192   116A      0.835987   117A      0.838520  
     118A      0.862410   119A      0.867487   120A      0.884868  
     121A      0.896877   122A      0.905021   123A      0.910024  
     124A      0.924024   125A      0.925961   126A      0.932357  
     127A      0.956960   128A      0.963679   129A      0.966672  
     130A      0.972940   131A      0.980953   132A      0.988904  
     133A      1.019846   134A      1.023662   135A      1.026544  
     136A      1.033236   137A      1.055068   138A      1.057994  
     139A      1.078876   140A      1.079476   141A      1.083300  
     142A      1.085741   143A      1.100182   144A      1.103382  
     145A      1.113773   146A      1.133821   147A      1.134604  
     148A      1.137439   149A      1.174865   150A      1.185314  
     151A      1.188564   152A      1.192916   153A      1.213397  
     154A      1.218365   155A      1.231130   156A      1.249201  
     157A      1.250770   158A      1.255679   159A      1.262380  
     160A      1.269178   161A      1.273508   162A      1.288034  
     163A      1.288639   164A      1.298917   165A      1.319559  
     166A      1.325536   167A      1.355722   168A      1.367609  
     169A      1.383361   170A      1.397133   171A      1.404111  
     172A      1.408443   173A      1.415886   174A      1.422079  
     175A      1.429510   176A      1.451294   177A      1.451615  
     178A      1.460038   179A      1.460481   180A      1.486651  
     181A      1.509784   182A      1.520790   183A      1.535081  
     184A      1.545126   185A      1.554520   186A      1.575338  
     187A      1.588496   188A      1.596870   189A      1.611231  
     190A      1.623141   191A      1.635027   192A      1.644935  
     193A      1.672018   194A      1.680443   195A      1.692600  
     196A      1.694437   197A      1.716889   198A      1.739062  
     199A      1.742284   200A      1.758859   201A      1.784335  
     202A      1.790333   203A      1.834027   204A      1.834882  
     205A      1.842544   206A      1.897287   207A      1.924456  
     208A      1.934389   209A      1.971055   210A      1.987672  
     211A      2.001819   212A      2.030864   213A      2.036693  
     214A      2.050490   215A      2.073990   216A      2.113593  
     217A      2.118915   218A      2.122936   219A      2.144674  
     220A      2.163351   221A      2.165146   222A      2.188452  
     223A      2.192355   224A      2.220214   225A      2.220222  
     226A      2.262642   227A      2.284400   228A      2.295887  
     229A      2.333709   230A      2.337847   231A      2.380087  
     232A      2.392644   233A      2.421474   234A      2.435823  
     235A      2.447147   236A      2.460607   237A      2.476163  
     238A      2.478116   239A      2.482118   240A      2.509999  
     241A      2.518486   242A      2.532990   243A      2.538751  
     244A      2.563658   245A      2.572981   246A      2.618583  
     247A      2.626049   248A      2.630668   249A      2.643055  
     250A      2.669701   251A      2.681476   252A      2.690833  
     253A      2.736049   254A      2.742565   255A      2.776374  
     256A      2.809578   257A      2.813196   258A      2.820219  
     259A      2.868450   260A      2.903468   261A      2.917827  
     262A      2.941642   263A      2.952844   264A      2.955156  
     265A      2.983853   266A      3.038154   267A      3.082360  
     268A      3.114778   269A      3.122900   270A      3.129714  
     271A      3.197847   272A      3.230857   273A      3.242405  
     274A      3.277211   275A      3.317664   276A      3.382308  
     277A      3.394059   278A      3.423406   279A      3.431824  
     280A      3.500530   281A      3.528457   282A      3.532432  
     283A      3.543478   284A      3.602128   285A      3.656727  
     286A      3.666817   287A      3.685493   288A      3.723582  
     289A      3.741739   290A      3.773213   291A      3.797547  
     292A      3.827076   293A      3.848941   294A      3.884068  
     295A      3.917503   296A      3.947328   297A      3.969586  
     298A      3.987534   299A      4.009067   300A      4.100394  
     301A      4.117852   302A      4.131988   303A      4.177610  
     304A      4.188778   305A      4.191506   306A      4.245757  
     307A      4.247085   308A      4.279931   309A      4.288520  
     310A      4.309418   311A      4.315595   312A      4.330929  
     313A      4.345663   314A      4.369191   315A      4.371019  
     316A      4.407195   317A      4.408338   318A      4.436271  
     319A      4.448015   320A      4.455777   321A      4.477135  
     322A      4.480179   323A      4.495409   324A      4.532797  
     325A      4.571084   326A      4.581676   327A      4.600011  
     328A      4.656357   329A      4.668179   330A      4.691361  
     331A      4.710032   332A      4.734630   333A      4.766914  
     334A      4.793324   335A      4.818582   336A      4.819287  
     337A      4.838899   338A      4.876266   339A      4.885904  
     340A      4.898243   341A      4.954923   342A      4.960330  
     343A      4.995461   344A      4.999898   345A      5.011705  
     346A      5.022478   347A      5.022704   348A      5.051446  
     349A      5.085214   350A      5.110739   351A      5.130511  
     352A      5.177784   353A      5.199465   354A      5.218546  
     355A      5.259316   356A      5.275988   357A      5.308097  
     358A      5.325725   359A      5.334977   360A      5.361303  
     361A      5.408983   362A      5.423796   363A      5.447077  
     364A      5.464349   365A      5.497505   366A      5.517347  
     367A      5.540751   368A      5.572935   369A      5.600445  
     370A      5.613736   371A      5.658316   372A      5.663734  
     373A      5.685384   374A      5.741166   375A      5.753967  
     376A      5.768928   377A      5.791210   378A      5.836240  
     379A      5.846030   380A      5.876551   381A      5.895613  
     382A      5.928626   383A      5.940130   384A      5.973950  
     385A      6.005897   386A      6.018850   387A      6.044891  
     388A      6.135497   389A      6.165848   390A      6.186358  
     391A      6.215850   392A      6.239689   393A      6.245483  
     394A      6.306149   395A      6.318763   396A      6.375690  
     397A      6.382711   398A      6.518046   399A      6.562651  
     400A      6.591144   401A      6.612274   402A      6.659914  
     403A      6.737052   404A      6.881231   405A      6.939823  
     406A      6.952440   407A      6.979450   408A      7.050015  
     409A      7.067012   410A      7.103083   411A      7.126993  
     412A      7.182372   413A      7.221665   414A      7.356935  
     415A      7.382346   416A      7.466666   417A      7.570014  
     418A      7.669459   419A      7.702465   420A      7.801994  
     421A      7.864630   422A      7.882419   423A      7.894989  
     424A      8.002480   425A      8.171717   426A      8.331873  
     427A      8.458510   428A      8.570715   429A      8.743527  
     430A      8.947897   431A      9.394421   432A     17.584021  
     433A     18.337882   434A     18.654384   435A     19.747608  
     436A     20.842108   437A     21.570807  

    Final Occupation by Irrep:
              A 
    DOCC [    24 ]

  @DF-RHF Final Energy:  -317.96132224687273

   => Energetics <=

    Nuclear Repulsion Energy =            256.6295963804680582
    One-Electron Energy =                -942.8660028963057584
    Two-Electron Energy =                 368.2750842689649176
    Total Energy =                       -317.9613222468727258

Computation Completed


Properties will be evaluated at   0.000000,   0.000000,   0.000000 [a0]

Properties computed using the SCF density matrix

  Nuclear Dipole Moment: [e a0]
     X:     1.3648      Y:    -1.9184      Z:    -0.0000

  Electronic Dipole Moment: [e a0]
     X:    -0.9949      Y:     1.2224      Z:     0.0000

  Dipole Moment: [e a0]
     X:     0.3698      Y:    -0.6960      Z:    -0.0000     Total:     0.7882

  Dipole Moment: [D]
     X:     0.9400      Y:    -1.7691      Z:    -0.0000     Total:     2.0033


*** tstop() called on node54.bme.utexas.edu at Mon Sep  9 16:03:47 2019
Module time:
	user time   =      73.83 seconds =       1.23 minutes
	system time =       1.38 seconds =       0.02 minutes
	total time  =         21 seconds =       0.35 minutes
Total time:
	user time   =      73.83 seconds =       1.23 minutes
	system time =       1.38 seconds =       0.02 minutes
	total time  =         21 seconds =       0.35 minutes

  //>>>>>>>>>>>>>>>>>>>>>>>>>>>>>>>>>>>//
  //            Monomer A HF           //
  //<<<<<<<<<<<<<<<<<<<<<<<<<<<<<<<<<<<//


*** tstart() called on node54.bme.utexas.edu
*** at Mon Sep  9 16:03:47 2019

   => Loading Basis Set <=

    Name: AUG-CC-PVTZ
    Role: ORBITAL
    Keyword: BASIS
    atoms 1, 7                 entry C          line   235 file /home/xy3866/psi4conda/share/psi4/basis/aug-cc-pvtz.gbs 
    atoms 2, 5-6, 8, 10, 12-13 entry H          line    36 file /home/xy3866/psi4conda/share/psi4/basis/aug-cc-pvtz.gbs 
    atoms 3                    entry O          line   327 file /home/xy3866/psi4conda/share/psi4/basis/aug-cc-pvtz.gbs 
    atoms 4, 9, 11             entry N          line   281 file /home/xy3866/psi4conda/share/psi4/basis/aug-cc-pvtz.gbs 


         ---------------------------------------------------------
                                   SCF
               by Justin Turney, Rob Parrish, Andy Simmonett
                          and Daniel G. A. Smith
                              RHF Reference
                        4 Threads,  30517 MiB Core
         ---------------------------------------------------------

  ==> Geometry <==

    Molecular point group: c1
    Full point group: C1

    Geometry (in Angstrom), charge = 0, multiplicity = 1:

       Center              X                  Y                   Z               Mass       
    ------------   -----------------  -----------------  -----------------  -----------------
         C           -1.598444668574     0.227827732949     0.000010112498    12.000000000000
         H           -2.695958668574     0.294055732949    -0.000010887502     1.007825032230
         O           -0.901466668574     1.238314732949    -0.000003887502    15.994914619570
         N           -1.142490668574    -1.033320267051     0.000001112498    14.003074004430
         H           -0.133928668574    -1.230322267051     0.000000112498     1.007825032230
         H           -1.803074668574    -1.787253267051    -0.000009887502     1.007825032230
      Gh(C)           1.638371131426    -0.214085767051     0.000001312498    12.000000000000
      Gh(H)           2.728283131426    -0.240353767051    -0.000002687502     1.007825032230
      Gh(N)           0.906465131426    -1.275744767051    -0.000000787502    14.003074004430
      Gh(H)           1.506230131426    -2.092063767051    -0.000006687502     1.007825032230
      Gh(N)           1.126196131426     1.030856232949    -0.000002687502    14.003074004430
      Gh(H)           0.119556131426     1.180832232949    -0.000003687502     1.007825032230
      Gh(H)           1.742083231426     1.818409232949    -0.000007787502     1.007825032230

  Running in c1 symmetry.

  Rotational constants: A =      0.18466  B =      0.11393  C =      0.07046 [cm^-1]
  Rotational constants: A =   5536.09764  B =   3415.45263  C =   2112.29102 [MHz]
  Nuclear repulsion =   71.120500652173718

  Charge       = 0
  Multiplicity = 1
  Electrons    = 24
  Nalpha       = 12
  Nbeta        = 12

  ==> Algorithm <==

  SCF Algorithm Type is DF.
  DIIS enabled.
  MOM disabled.
  Fractional occupation disabled.
  Guess Type is SAD.
  Energy threshold   = 1.00e-08
  Density threshold  = 1.00e-08
  Integral threshold = 0.00e+00

  ==> Primary Basis <==

  Basis Set: AUG-CC-PVTZ
    Blend: AUG-CC-PVTZ
    Number of shells: 147
    Number of basis function: 437
    Number of Cartesian functions: 505
    Spherical Harmonics?: true
    Max angular momentum: 3

   => Loading Basis Set <=

    Name: (AUG-CC-PVTZ AUX)
    Role: JKFIT
    Keyword: DF_BASIS_SCF
    atoms 1, 7                 entry C          line   162 file /home/xy3866/psi4conda/share/psi4/basis/aug-cc-pvtz-jkfit.gbs 
    atoms 2, 5-6, 8, 10, 12-13 entry H          line    70 file /home/xy3866/psi4conda/share/psi4/basis/aug-cc-pvtz-jkfit.gbs 
    atoms 3                    entry O          line   286 file /home/xy3866/psi4conda/share/psi4/basis/aug-cc-pvtz-jkfit.gbs 
    atoms 4, 9, 11             entry N          line   224 file /home/xy3866/psi4conda/share/psi4/basis/aug-cc-pvtz-jkfit.gbs 

  ==> Pre-Iterations <==

   -------------------------------------------------------
    Irrep   Nso     Nmo     Nalpha   Nbeta   Ndocc  Nsocc
   -------------------------------------------------------
     A        437     437       0       0       0       0
   -------------------------------------------------------
    Total     437     437      12      12      12       0
   -------------------------------------------------------

  ==> Integral Setup <==

  ==> DiskDFJK: Density-Fitted J/K Matrices <==

    J tasked:                  Yes
    K tasked:                  Yes
    wK tasked:                  No
    OpenMP threads:              4
    Integrals threads:           4
    Memory [MiB]:            22888
    Algorithm:                Core
    Integral Cache:           LOAD
    Schwarz Cutoff:          1E-12
    Fitting Condition:       1E-10

   => Auxiliary Basis Set <=

  Basis Set: (AUG-CC-PVTZ AUX)
    Blend: AUG-CC-PVTZ-JKFIT
    Number of shells: 278
    Number of basis function: 946
    Number of Cartesian functions: 1171
    Spherical Harmonics?: true
    Max angular momentum: 4

  Minimum eigenvalue in the overlap matrix is 1.0011537958E-05.
  Using Symmetric Orthogonalization.

  SCF Guess: Superposition of Atomic Densities via on-the-fly atomic UHF.

  ==> Iterations <==

                           Total Energy        Delta E     RMS |[F,P]|

   @DF-RHF iter SAD:  -168.19954731778898   -1.68200e+02   0.00000e+00 
   @DF-RHF iter   1:  -168.87926570956677   -6.79718e-01   1.22482e-03 DIIS
   @DF-RHF iter   2:  -168.95741210875249   -7.81464e-02   8.38047e-04 DIIS
   @DF-RHF iter   3:  -169.00127228410631   -4.38602e-02   1.20129e-04 DIIS
   @DF-RHF iter   4:  -169.00271734184915   -1.44506e-03   5.20382e-05 DIIS
   @DF-RHF iter   5:  -169.00302296004898   -3.05618e-04   1.04775e-05 DIIS
   @DF-RHF iter   6:  -169.00305348877129   -3.05287e-05   4.99858e-06 DIIS
   @DF-RHF iter   7:  -169.00305990725019   -6.41848e-06   2.01258e-06 DIIS
   @DF-RHF iter   8:  -169.00306103190002   -1.12465e-06   6.09911e-07 DIIS
   @DF-RHF iter   9:  -169.00306113800298   -1.06103e-07   1.68173e-07 DIIS
   @DF-RHF iter  10:  -169.00306114632590   -8.32293e-09   4.16427e-08 DIIS
   @DF-RHF iter  11:  -169.00306114674248   -4.16577e-10   7.44902e-09 DIIS
  Energy and wave function converged.


  ==> Post-Iterations <==

    Orbital Energies [Eh]
    ---------------------

    Doubly Occupied:                                                      

       1A    -20.526607     2A    -15.602819     3A    -11.356483  
       4A     -1.376515     5A     -1.226862     6A     -0.853722  
       7A     -0.755380     8A     -0.676711     9A     -0.602552  
      10A     -0.571838    11A     -0.434926    12A     -0.421992  

    Virtual:                                                              

      13A      0.017621    14A      0.029690    15A      0.039405  
      16A      0.052062    17A      0.055891    18A      0.070323  
      19A      0.072237    20A      0.086104    21A      0.087004  
      22A      0.094495    23A      0.109141    24A      0.116662  
      25A      0.124549    26A      0.125377    27A      0.138631  
      28A      0.142885    29A      0.151711    30A      0.154476  
      31A      0.158680    32A      0.167944    33A      0.175662  
      34A      0.193935    35A      0.198194    36A      0.206825  
      37A      0.213398    38A      0.222636    39A      0.250073  
      40A      0.251946    41A      0.258386    42A      0.259895  
      43A      0.274907    44A      0.285896    45A      0.289808  
      46A      0.298197    47A      0.303803    48A      0.316687  
      49A      0.319891    50A      0.327232    51A      0.339687  
      52A      0.344544    53A      0.349359    54A      0.353860  
      55A      0.361103    56A      0.367592    57A      0.369139  
      58A      0.372874    59A      0.389832    60A      0.404880  
      61A      0.409030    62A      0.412303    63A      0.419184  
      64A      0.428820    65A      0.429292    66A      0.440405  
      67A      0.448888    68A      0.450052    69A      0.468084  
      70A      0.478039    71A      0.490732    72A      0.506787  
      73A      0.507982    74A      0.523441    75A      0.538201  
      76A      0.558487    77A      0.559791    78A      0.562194  
      79A      0.578961    80A      0.585722    81A      0.590073  
      82A      0.593282    83A      0.602960    84A      0.619539  
      85A      0.652718    86A      0.664852    87A      0.665457  
      88A      0.681993    89A      0.684157    90A      0.702253  
      91A      0.726972    92A      0.729353    93A      0.731765  
      94A      0.754159    95A      0.758285    96A      0.770957  
      97A      0.776967    98A      0.794005    99A      0.794185  
     100A      0.807306   101A      0.810638   102A      0.823171  
     103A      0.826758   104A      0.844858   105A      0.852996  
     106A      0.864318   107A      0.870728   108A      0.888195  
     109A      0.895826   110A      0.910116   111A      0.915740  
     112A      0.922350   113A      0.932311   114A      0.942924  
     115A      0.950717   116A      0.952161   117A      0.974163  
     118A      0.979895   119A      0.993090   120A      0.993340  
     121A      1.010195   122A      1.028319   123A      1.031411  
     124A      1.051581   125A      1.062442   126A      1.066798  
     127A      1.071909   128A      1.075319   129A      1.083329  
     130A      1.100175   131A      1.108165   132A      1.115443  
     133A      1.130502   134A      1.143863   135A      1.160560  
     136A      1.168204   137A      1.173330   138A      1.175467  
     139A      1.206415   140A      1.217111   141A      1.228508  
     142A      1.233227   143A      1.253835   144A      1.254673  
     145A      1.263575   146A      1.267188   147A      1.280478  
     148A      1.287204   149A      1.305769   150A      1.347316  
     151A      1.351720   152A      1.355738   153A      1.368583  
     154A      1.379220   155A      1.385042   156A      1.403375  
     157A      1.415040   158A      1.427975   159A      1.432639  
     160A      1.433287   161A      1.469361   162A      1.486937  
     163A      1.497119   164A      1.497976   165A      1.509742  
     166A      1.516488   167A      1.534909   168A      1.558485  
     169A      1.567822   170A      1.569782   171A      1.594755  
     172A      1.603828   173A      1.614940   174A      1.619106  
     175A      1.649445   176A      1.656956   177A      1.668323  
     178A      1.670443   179A      1.687489   180A      1.690202  
     181A      1.726039   182A      1.731156   183A      1.735891  
     184A      1.755745   185A      1.758452   186A      1.759669  
     187A      1.769567   188A      1.787252   189A      1.792235  
     190A      1.807733   191A      1.808309   192A      1.860958  
     193A      1.869310   194A      1.870140   195A      1.912927  
     196A      1.924101   197A      1.937583   198A      1.967723  
     199A      1.980081   200A      2.006557   201A      2.007691  
     202A      2.043408   203A      2.090106   204A      2.104736  
     205A      2.110845   206A      2.148823   207A      2.175313  
     208A      2.185997   209A      2.214214   210A      2.250338  
     211A      2.253804   212A      2.268274   213A      2.271002  
     214A      2.282250   215A      2.318123   216A      2.333866  
     217A      2.376749   218A      2.399507   219A      2.406699  
     220A      2.420717   221A      2.448697   222A      2.477431  
     223A      2.484085   224A      2.491653   225A      2.504996  
     226A      2.560332   227A      2.565720   228A      2.572330  
     229A      2.580356   230A      2.596928   231A      2.622146  
     232A      2.631061   233A      2.646810   234A      2.662360  
     235A      2.695714   236A      2.718626   237A      2.724316  
     238A      2.743334   239A      2.748939   240A      2.770167  
     241A      2.797743   242A      2.823455   243A      2.843598  
     244A      2.848626   245A      2.889541   246A      2.929830  
     247A      2.946998   248A      2.983434   249A      2.992223  
     250A      3.006357   251A      3.008092   252A      3.016110  
     253A      3.028649   254A      3.066871   255A      3.085318  
     256A      3.130717   257A      3.137827   258A      3.152782  
     259A      3.178223   260A      3.194643   261A      3.236870  
     262A      3.243809   263A      3.277833   264A      3.366899  
     265A      3.408499   266A      3.410760   267A      3.460442  
     268A      3.494798   269A      3.508540   270A      3.541094  
     271A      3.565130   272A      3.608466   273A      3.627169  
     274A      3.694649   275A      3.724474   276A      3.742725  
     277A      3.760657   278A      3.778874   279A      3.829098  
     280A      3.853395   281A      3.921513   282A      3.937816  
     283A      4.018245   284A      4.059106   285A      4.102307  
     286A      4.132517   287A      4.151386   288A      4.152155  
     289A      4.207348   290A      4.218846   291A      4.268304  
     292A      4.270890   293A      4.336463   294A      4.357485  
     295A      4.372967   296A      4.422706   297A      4.434214  
     298A      4.452008   299A      4.476602   300A      4.496039  
     301A      4.505915   302A      4.535152   303A      4.546106  
     304A      4.553309   305A      4.556317   306A      4.598956  
     307A      4.647607   308A      4.692822   309A      4.726822  
     310A      4.745430   311A      4.812918   312A      4.834384  
     313A      4.848821   314A      4.854385   315A      4.863735  
     316A      4.901577   317A      4.921295   318A      4.942080  
     319A      4.953974   320A      4.971571   321A      4.982327  
     322A      5.002727   323A      5.020016   324A      5.048526  
     325A      5.056616   326A      5.062034   327A      5.074095  
     328A      5.102199   329A      5.110371   330A      5.133181  
     331A      5.160156   332A      5.204559   333A      5.244709  
     334A      5.247695   335A      5.257489   336A      5.289830  
     337A      5.329605   338A      5.348678   339A      5.383400  
     340A      5.427980   341A      5.431902   342A      5.446923  
     343A      5.463162   344A      5.511577   345A      5.536625  
     346A      5.558645   347A      5.572780   348A      5.605814  
     349A      5.613973   350A      5.691503   351A      5.728609  
     352A      5.761249   353A      5.784502   354A      5.818660  
     355A      5.877544   356A      5.894284   357A      5.922505  
     358A      5.947033   359A      6.008348   360A      6.021032  
     361A      6.022523   362A      6.103092   363A      6.159160  
     364A      6.182599   365A      6.190341   366A      6.287220  
     367A      6.299911   368A      6.336676   369A      6.348961  
     370A      6.421018   371A      6.460160   372A      6.486007  
     373A      6.510443   374A      6.554196   375A      6.591351  
     376A      6.655088   377A      6.669474   378A      6.732985  
     379A      6.748533   380A      6.792502   381A      6.812163  
     382A      6.860186   383A      6.921529   384A      6.930247  
     385A      6.979595   386A      6.998207   387A      7.007998  
     388A      7.062319   389A      7.108308   390A      7.177178  
     391A      7.219699   392A      7.254751   393A      7.266921  
     394A      7.430004   395A      7.448505   396A      7.501531  
     397A      7.536413   398A      7.568159   399A      7.614204  
     400A      7.627337   401A      7.648103   402A      7.733206  
     403A      7.766430   404A      7.829731   405A      7.886697  
     406A      7.915751   407A      7.972857   408A      8.029119  
     409A      8.186306   410A      8.245096   411A      8.291342  
     412A      8.381056   413A      8.492166   414A      8.492535  
     415A      8.626952   416A      8.702175   417A      9.180656  
     418A      9.237115   419A      9.335677   420A      9.455029  
     421A      9.606546   422A      9.677636   423A      9.818337  
     424A     10.046847   425A     10.850507   426A     11.419050  
     427A     11.518509   428A     12.032967   429A     12.150596  
     430A     13.210933   431A     13.504645   432A     18.126202  
     433A     19.130248   434A     20.550401   435A     53.833718  
     436A     64.683856   437A     65.351432  

    Final Occupation by Irrep:
              A 
    DOCC [    12 ]

  @DF-RHF Final Energy:  -169.00306114674248

   => Energetics <=

    Nuclear Repulsion Energy =             71.1205006521737175
    One-Electron Energy =                -371.4343088326072575
    Two-Electron Energy =                 131.3107470336910296
    Total Energy =                       -169.0030611467424819

Computation Completed


Properties will be evaluated at   0.000000,   0.000000,   0.000000 [a0]

Properties computed using the SCF density matrix

  Nuclear Dipole Moment: [e a0]
     X:   -55.6199      Y:     2.4882      Z:     0.0000

  Electronic Dipole Moment: [e a0]
     X:    55.0402      Y:    -4.1478      Z:    -0.0000

  Dipole Moment: [e a0]
     X:    -0.5798      Y:    -1.6595      Z:     0.0000     Total:     1.7579

  Dipole Moment: [D]
     X:    -1.4736      Y:    -4.2181      Z:     0.0000     Total:     4.4681


*** tstop() called on node54.bme.utexas.edu at Mon Sep  9 16:03:59 2019
Module time:
	user time   =      41.74 seconds =       0.70 minutes
	system time =       0.80 seconds =       0.01 minutes
	total time  =         12 seconds =       0.20 minutes
Total time:
	user time   =     115.60 seconds =       1.93 minutes
	system time =       2.18 seconds =       0.04 minutes
	total time  =         33 seconds =       0.55 minutes

  //>>>>>>>>>>>>>>>>>>>>>>>>>>>>>>>>>>>//
  //            Monomer B HF           //
  //<<<<<<<<<<<<<<<<<<<<<<<<<<<<<<<<<<<//


*** tstart() called on node54.bme.utexas.edu
*** at Mon Sep  9 16:03:59 2019

   => Loading Basis Set <=

    Name: AUG-CC-PVTZ
    Role: ORBITAL
    Keyword: BASIS
    atoms 1, 7                 entry C          line   235 file /home/xy3866/psi4conda/share/psi4/basis/aug-cc-pvtz.gbs 
    atoms 2, 5-6, 8, 10, 12-13 entry H          line    36 file /home/xy3866/psi4conda/share/psi4/basis/aug-cc-pvtz.gbs 
    atoms 3                    entry O          line   327 file /home/xy3866/psi4conda/share/psi4/basis/aug-cc-pvtz.gbs 
    atoms 4, 9, 11             entry N          line   281 file /home/xy3866/psi4conda/share/psi4/basis/aug-cc-pvtz.gbs 


         ---------------------------------------------------------
                                   SCF
               by Justin Turney, Rob Parrish, Andy Simmonett
                          and Daniel G. A. Smith
                              RHF Reference
                        4 Threads,  30517 MiB Core
         ---------------------------------------------------------

  ==> Geometry <==

    Molecular point group: c1
    Full point group: C1

    Geometry (in Angstrom), charge = 0, multiplicity = 1:

       Center              X                  Y                   Z               Mass       
    ------------   -----------------  -----------------  -----------------  -----------------
      Gh(C)          -1.598444668574     0.227827732949     0.000010112498    12.000000000000
      Gh(H)          -2.695958668574     0.294055732949    -0.000010887502     1.007825032230
      Gh(O)          -0.901466668574     1.238314732949    -0.000003887502    15.994914619570
      Gh(N)          -1.142490668574    -1.033320267051     0.000001112498    14.003074004430
      Gh(H)          -0.133928668574    -1.230322267051     0.000000112498     1.007825032230
      Gh(H)          -1.803074668574    -1.787253267051    -0.000009887502     1.007825032230
         C            1.638371131426    -0.214085767051     0.000001312498    12.000000000000
         H            2.728283131426    -0.240353767051    -0.000002687502     1.007825032230
         N            0.906465131426    -1.275744767051    -0.000000787502    14.003074004430
         H            1.506230131426    -2.092063767051    -0.000006687502     1.007825032230
         N            1.126196131426     1.030856232949    -0.000002687502    14.003074004430
         H            0.119556131426     1.180832232949    -0.000003687502     1.007825032230
         H            1.742083231426     1.818409232949    -0.000007787502     1.007825032230

  Running in c1 symmetry.

  Rotational constants: A =      0.18466  B =      0.11393  C =      0.07046 [cm^-1]
  Rotational constants: A =   5536.09764  B =   3415.45263  C =   2112.29102 [MHz]
  Nuclear repulsion =   72.220839820624960

  Charge       = 0
  Multiplicity = 1
  Electrons    = 24
  Nalpha       = 12
  Nbeta        = 12

  ==> Algorithm <==

  SCF Algorithm Type is DF.
  DIIS enabled.
  MOM disabled.
  Fractional occupation disabled.
  Guess Type is SAD.
  Energy threshold   = 1.00e-08
  Density threshold  = 1.00e-08
  Integral threshold = 0.00e+00

  ==> Primary Basis <==

  Basis Set: AUG-CC-PVTZ
    Blend: AUG-CC-PVTZ
    Number of shells: 147
    Number of basis function: 437
    Number of Cartesian functions: 505
    Spherical Harmonics?: true
    Max angular momentum: 3

   => Loading Basis Set <=

    Name: (AUG-CC-PVTZ AUX)
    Role: JKFIT
    Keyword: DF_BASIS_SCF
    atoms 1, 7                 entry C          line   162 file /home/xy3866/psi4conda/share/psi4/basis/aug-cc-pvtz-jkfit.gbs 
    atoms 2, 5-6, 8, 10, 12-13 entry H          line    70 file /home/xy3866/psi4conda/share/psi4/basis/aug-cc-pvtz-jkfit.gbs 
    atoms 3                    entry O          line   286 file /home/xy3866/psi4conda/share/psi4/basis/aug-cc-pvtz-jkfit.gbs 
    atoms 4, 9, 11             entry N          line   224 file /home/xy3866/psi4conda/share/psi4/basis/aug-cc-pvtz-jkfit.gbs 

  ==> Pre-Iterations <==

   -------------------------------------------------------
    Irrep   Nso     Nmo     Nalpha   Nbeta   Ndocc  Nsocc
   -------------------------------------------------------
     A        437     437       0       0       0       0
   -------------------------------------------------------
    Total     437     437      12      12      12       0
   -------------------------------------------------------

  ==> Integral Setup <==

  ==> DiskDFJK: Density-Fitted J/K Matrices <==

    J tasked:                  Yes
    K tasked:                  Yes
    wK tasked:                  No
    OpenMP threads:              4
    Integrals threads:           4
    Memory [MiB]:            22888
    Algorithm:                Core
    Integral Cache:           LOAD
    Schwarz Cutoff:          1E-12
    Fitting Condition:       1E-10

   => Auxiliary Basis Set <=

  Basis Set: (AUG-CC-PVTZ AUX)
    Blend: AUG-CC-PVTZ-JKFIT
    Number of shells: 278
    Number of basis function: 946
    Number of Cartesian functions: 1171
    Spherical Harmonics?: true
    Max angular momentum: 4

  Minimum eigenvalue in the overlap matrix is 1.0011537958E-05.
  Using Symmetric Orthogonalization.

  SCF Guess: Superposition of Atomic Densities via on-the-fly atomic UHF.

  ==> Iterations <==

                           Total Energy        Delta E     RMS |[F,P]|

   @DF-RHF iter SAD:  -148.39145864145851   -1.48391e+02   0.00000e+00 
   @DF-RHF iter   1:  -148.99823475268965   -6.06776e-01   1.25655e-03 DIIS
   @DF-RHF iter   2:  -149.10024371318588   -1.02009e-01   7.40250e-04 DIIS
   @DF-RHF iter   3:  -149.14203252170304   -4.17888e-02   1.03384e-04 DIIS
   @DF-RHF iter   4:  -149.14344155801388   -1.40904e-03   5.11165e-05 DIIS
   @DF-RHF iter   5:  -149.14371746588051   -2.75908e-04   9.29429e-06 DIIS
   @DF-RHF iter   6:  -149.14374573635592   -2.82705e-05   4.37995e-06 DIIS
   @DF-RHF iter   7:  -149.14375037351056   -4.63715e-06   1.76449e-06 DIIS
   @DF-RHF iter   8:  -149.14375130068555   -9.27175e-07   5.22002e-07 DIIS
   @DF-RHF iter   9:  -149.14375138572439   -8.50388e-08   1.59058e-07 DIIS
   @DF-RHF iter  10:  -149.14375139315970   -7.43532e-09   3.97624e-08 DIIS
   @DF-RHF iter  11:  -149.14375139363204   -4.72340e-10   7.57663e-09 DIIS
  Energy and wave function converged.


  ==> Post-Iterations <==

    Orbital Energies [Eh]
    ---------------------

    Doubly Occupied:                                                      

       1A    -15.580902     2A    -15.519453     3A    -11.314699  
       4A     -1.259430     5A     -1.137330     6A     -0.830825  
       7A     -0.746490     8A     -0.640057     9A     -0.616557  
      10A     -0.530107    11A     -0.419654    12A     -0.359596  

    Virtual:                                                              

      13A      0.022379    14A      0.032050    15A      0.038056  
      16A      0.052950    17A      0.057705    18A      0.070904  
      19A      0.074059    20A      0.084556    21A      0.087644  
      22A      0.101736    23A      0.108127    24A      0.117692  
      25A      0.125936    26A      0.134963    27A      0.139356  
      28A      0.149222    29A      0.153135    30A      0.158142  
      31A      0.163728    32A      0.174003    33A      0.175641  
      34A      0.184384    35A      0.208129    36A      0.208224  
      37A      0.222693    38A      0.225941    39A      0.229113  
      40A      0.244007    41A      0.257325    42A      0.260572  
      43A      0.269451    44A      0.288185    45A      0.292346  
      46A      0.312939    47A      0.314129    48A      0.315553  
      49A      0.326473    50A      0.329041    51A      0.340368  
      52A      0.340937    53A      0.348029    54A      0.359731  
      55A      0.367373    56A      0.367427    57A      0.371810  
      58A      0.390019    59A      0.406798    60A      0.406835  
      61A      0.414764    62A      0.416128    63A      0.421750  
      64A      0.429381    65A      0.436853    66A      0.443233  
      67A      0.457780    68A      0.460438    69A      0.466054  
      70A      0.487770    71A      0.493644    72A      0.509308  
      73A      0.512154    74A      0.521547    75A      0.540077  
      76A      0.540299    77A      0.547063    78A      0.549785  
      79A      0.562771    80A      0.587995    81A      0.597888  
      82A      0.602374    83A      0.608110    84A      0.642177  
      85A      0.655175    86A      0.673022    87A      0.680539  
      88A      0.680824    89A      0.688750    90A      0.701426  
      91A      0.710382    92A      0.716168    93A      0.731176  
      94A      0.741513    95A      0.764752    96A      0.774418  
      97A      0.776264    98A      0.781805    99A      0.789866  
     100A      0.805243   101A      0.812233   102A      0.812781  
     103A      0.840956   104A      0.843713   105A      0.858826  
     106A      0.883093   107A      0.883972   108A      0.897001  
     109A      0.900747   110A      0.910481   111A      0.924540  
     112A      0.925528   113A      0.934943   114A      0.943538  
     115A      0.949547   116A      0.975903   117A      0.986281  
     118A      0.991260   119A      0.994566   120A      0.994969  
     121A      1.004249   122A      1.010468   123A      1.029845  
     124A      1.029975   125A      1.037594   126A      1.054269  
     127A      1.062832   128A      1.097902   129A      1.107680  
     130A      1.112939   131A      1.118768   132A      1.126962  
     133A      1.136938   134A      1.138963   135A      1.149460  
     136A      1.170287   137A      1.191033   138A      1.191306  
     139A      1.194796   140A      1.205747   141A      1.218595  
     142A      1.222686   143A      1.223683   144A      1.243670  
     145A      1.257333   146A      1.274885   147A      1.284234  
     148A      1.287362   149A      1.301507   150A      1.306394  
     151A      1.335998   152A      1.353306   153A      1.366173  
     154A      1.381176   155A      1.381607   156A      1.395039  
     157A      1.402529   158A      1.418079   159A      1.424002  
     160A      1.432437   161A      1.446953   162A      1.456861  
     163A      1.467923   164A      1.483053   165A      1.498166  
     166A      1.517405   167A      1.543622   168A      1.548347  
     169A      1.559207   170A      1.571989   171A      1.586785  
     172A      1.612843   173A      1.614279   174A      1.619655  
     175A      1.640461   176A      1.645676   177A      1.687082  
     178A      1.687336   179A      1.695899   180A      1.719816  
     181A      1.730564   182A      1.732929   183A      1.733071  
     184A      1.748856   185A      1.754292   186A      1.796218  
     187A      1.798526   188A      1.819028   189A      1.824157  
     190A      1.845616   191A      1.850557   192A      1.854293  
     193A      1.902562   194A      1.916280   195A      1.944114  
     196A      1.945156   197A      1.982180   198A      1.985417  
     199A      2.008195   200A      2.013266   201A      2.034765  
     202A      2.042402   203A      2.085183   204A      2.097132  
     205A      2.100926   206A      2.135824   207A      2.156795  
     208A      2.184853   209A      2.200778   210A      2.222633  
     211A      2.232611   212A      2.245834   213A      2.275382  
     214A      2.284211   215A      2.294858   216A      2.301570  
     217A      2.347338   218A      2.372167   219A      2.423679  
     220A      2.425172   221A      2.444252   222A      2.445168  
     223A      2.471474   224A      2.516174   225A      2.531596  
     226A      2.542606   227A      2.553520   228A      2.569423  
     229A      2.580857   230A      2.596732   231A      2.601519  
     232A      2.627557   233A      2.647285   234A      2.652491  
     235A      2.673509   236A      2.699093   237A      2.701045  
     238A      2.709284   239A      2.757441   240A      2.761708  
     241A      2.793801   242A      2.795488   243A      2.842568  
     244A      2.850026   245A      2.866686   246A      2.867233  
     247A      2.928619   248A      2.933398   249A      2.948195  
     250A      2.981154   251A      3.024618   252A      3.069018  
     253A      3.106220   254A      3.112636   255A      3.149875  
     256A      3.150841   257A      3.196182   258A      3.242479  
     259A      3.246293   260A      3.296215   261A      3.314330  
     262A      3.324327   263A      3.363749   264A      3.385061  
     265A      3.467467   266A      3.469416   267A      3.483744  
     268A      3.509121   269A      3.511436   270A      3.583392  
     271A      3.631262   272A      3.645178   273A      3.691489  
     274A      3.703699   275A      3.734207   276A      3.741560  
     277A      3.799228   278A      3.849625   279A      3.882487  
     280A      3.921624   281A      3.922048   282A      3.950317  
     283A      3.992462   284A      4.031987   285A      4.098979  
     286A      4.111359   287A      4.111878   288A      4.161708  
     289A      4.168874   290A      4.170382   291A      4.219975  
     292A      4.231272   293A      4.256318   294A      4.292702  
     295A      4.308185   296A      4.344539   297A      4.358958  
     298A      4.402668   299A      4.417094   300A      4.437512  
     301A      4.490636   302A      4.507560   303A      4.531881  
     304A      4.541918   305A      4.584310   306A      4.627264  
     307A      4.645924   308A      4.651312   309A      4.668132  
     310A      4.698997   311A      4.702364   312A      4.713442  
     313A      4.738064   314A      4.751655   315A      4.819797  
     316A      4.846343   317A      4.877752   318A      4.902315  
     319A      4.925211   320A      4.931231   321A      4.953499  
     322A      4.977191   323A      4.979377   324A      5.012206  
     325A      5.016530   326A      5.045614   327A      5.045791  
     328A      5.063926   329A      5.094836   330A      5.101286  
     331A      5.103175   332A      5.134586   333A      5.175188  
     334A      5.217568   335A      5.252780   336A      5.312715  
     337A      5.313283   338A      5.329717   339A      5.334541  
     340A      5.359011   341A      5.372753   342A      5.396399  
     343A      5.442919   344A      5.446210   345A      5.473760  
     346A      5.518044   347A      5.530220   348A      5.539228  
     349A      5.566379   350A      5.589011   351A      5.608781  
     352A      5.646207   353A      5.655353   354A      5.687734  
     355A      5.690739   356A      5.764928   357A      5.788635  
     358A      5.808117   359A      5.835749   360A      5.838086  
     361A      5.884982   362A      5.907121   363A      5.934047  
     364A      6.007005   365A      6.030781   366A      6.030929  
     367A      6.048057   368A      6.099700   369A      6.154422  
     370A      6.191170   371A      6.227742   372A      6.264663  
     373A      6.288872   374A      6.332852   375A      6.411112  
     376A      6.440670   377A      6.523817   378A      6.555146  
     379A      6.577519   380A      6.646174   381A      6.701538  
     382A      6.717090   383A      6.756428   384A      6.791257  
     385A      6.822872   386A      6.856159   387A      6.880459  
     388A      6.953111   389A      7.009289   390A      7.050271  
     391A      7.205226   392A      7.253525   393A      7.275360  
     394A      7.439685   395A      7.481960   396A      7.517718  
     397A      7.578979   398A      7.693189   399A      7.734739  
     400A      7.766520   401A      7.812093   402A      7.839013  
     403A      7.967517   404A      8.002439   405A      8.076336  
     406A      8.163084   407A      8.181467   408A      8.269549  
     409A      8.288318   410A      8.535129   411A      8.625565  
     412A      8.715222   413A      8.993770   414A      9.106903  
     415A      9.338071   416A      9.563099   417A      9.765350  
     418A      9.796526   419A      9.957367   420A      9.972837  
     421A     10.391257   422A     10.759951   423A     11.099855  
     424A     11.294236   425A     11.495894   426A     12.067574  
     427A     12.127794   428A     13.078102   429A     13.439769  
     430A     13.767853   431A     14.747013   432A     18.514663  
     433A     20.275574   434A     20.626876   435A     54.099878  
     436A     64.889732   437A     70.825732  

    Final Occupation by Irrep:
              A 
    DOCC [    12 ]

  @DF-RHF Final Energy:  -149.14375139363204

   => Energetics <=

    Nuclear Repulsion Energy =             72.2208398206249598
    One-Electron Energy =                -344.8189810091872687
    Two-Electron Energy =                 123.4543897949302504
    Total Energy =                       -149.1437513936320443

Computation Completed


Properties will be evaluated at   0.000000,   0.000000,   0.000000 [a0]

Properties computed using the SCF density matrix

  Nuclear Dipole Moment: [e a0]
     X:    56.9847      Y:    -4.4067      Z:    -0.0001

  Electronic Dipole Moment: [e a0]
     X:   -56.1418      Y:     5.3771      Z:     0.0001

  Dipole Moment: [e a0]
     X:     0.8429      Y:     0.9704      Z:    -0.0000     Total:     1.2854

  Dipole Moment: [D]
     X:     2.1424      Y:     2.4665      Z:    -0.0000     Total:     3.2670


*** tstop() called on node54.bme.utexas.edu at Mon Sep  9 16:04:10 2019
Module time:
	user time   =      38.93 seconds =       0.65 minutes
	system time =       0.77 seconds =       0.01 minutes
	total time  =         11 seconds =       0.18 minutes
Total time:
	user time   =     154.56 seconds =       2.58 minutes
	system time =       2.95 seconds =       0.05 minutes
	total time  =         44 seconds =       0.73 minutes
  Constructing Basis Sets for SAPT...

   => Loading Basis Set <=

    Name: (AUG-CC-PVTZ AUX)
    Role: RIFIT
    Keyword: DF_BASIS_SAPT
    atoms 1, 7                 entry C          line   148 file /home/xy3866/psi4conda/share/psi4/basis/aug-cc-pvtz-ri.gbs 
    atoms 2, 5-6, 8, 10, 12-13 entry H          line    30 file /home/xy3866/psi4conda/share/psi4/basis/aug-cc-pvtz-ri.gbs 
    atoms 3                    entry O          line   264 file /home/xy3866/psi4conda/share/psi4/basis/aug-cc-pvtz-ri.gbs 
    atoms 4, 9, 11             entry N          line   206 file /home/xy3866/psi4conda/share/psi4/basis/aug-cc-pvtz-ri.gbs 


  //>>>>>>>>>>>>>>>>>>>>>>>>>>>>>>>>>>>//
  //               SAPT2+              //
  //<<<<<<<<<<<<<<<<<<<<<<<<<<<<<<<<<<<//


*** tstart() called on node54.bme.utexas.edu
*** at Mon Sep  9 16:04:10 2019

        SAPT2+  
    Ed Hohenstein
     6 June 2009

      Orbital Information
  --------------------------
    NSO        =       437
    NMO        =       437
    NRI        =       958
    NOCC A     =        12
    NOCC B     =        12
    FOCC A     =         3
    FOCC B     =         3
    NVIR A     =       425
    NVIR B     =       425

    Estimated memory usage: 2008.5 MB

    Natural Orbital Cutoff:   1.000E-06
    Disp(T3) Truncation:            Yes
    CCD (vv|vv) Truncation:         Yes
    MBPT T2 Truncation:             Yes

    Monomer A: 227 virtual orbitals dropped
    Monomer B: 209 virtual orbitals dropped

    Elst10,r            =    -0.234427488379 [Eh]
    Exch10 (S^2)        =     0.554297667960 [Eh]
    Exch10              =     0.649293811843 [Eh]
    Ind20,r (A<-B)      =    -0.178846407647 [Eh]
    Ind20,r (B<-A)      =    -0.219388917599 [Eh]
    Ind20,r             =    -0.398235325247 [Eh]
    Exch-Ind20,r (A<-B) =     0.086150413293 [Eh]
    Exch-Ind20,r (B<-A) =     0.113187407445 [Eh]
    Exch-Ind20,r        =     0.199337820737 [Eh]
    Disp20              =    -0.099658929911 [Eh]
    Disp20 (NO)         =    -0.093092090946 [Eh]
    Exch-Disp20         =     0.018077655508 [Eh]
    Elst12,r            =     0.002949341552 [Eh]
    Exch11              =     0.003162308140 [Eh]
    Exch12              =     0.002313613795 [Eh]
    Ind22               =    -0.029794515391 [Eh]
    Disp21              =     0.016223460678 [Eh]
    Disp22 (SDQ)        =    -0.000762216132 [Eh]

    (i =   1 of   9)         29 seconds
    (i =   2 of   9)         59 seconds
    (i =   3 of   9)         89 seconds
    (i =   4 of   9)        118 seconds
    (i =   5 of   9)        148 seconds
    (i =   6 of   9)        177 seconds
    (i =   7 of   9)        207 seconds
    (i =   8 of   9)        237 seconds
    (i =   9 of   9)        266 seconds

    Disp220 (T)         =    -0.006735472410 [Eh]

    (i =   1 of   9)         35 seconds
    (i =   2 of   9)         69 seconds
    (i =   3 of   9)        104 seconds
    (i =   4 of   9)        138 seconds
    (i =   5 of   9)        173 seconds
    (i =   6 of   9)        207 seconds
    (i =   7 of   9)        242 seconds
    (i =   8 of   9)        276 seconds
    (i =   9 of   9)        311 seconds

    Disp202 (T)         =    -0.006245207141 [Eh]

    Disp22 (T)          =    -0.012980679550 [Eh]

    Est. Disp220 (T)    =    -0.007210601523 [Eh]
    Est. Disp202 (T)    =    -0.006685752295 [Eh]

    Est. Disp22 (T)     =    -0.013896353819 [Eh]

    SAPT Results 
  --------------------------------------------------------------------------------------------------------
    Electrostatics               -231.47814683 [mEh]    -145.25473011 [kcal/mol]    -607.74579077 [kJ/mol]
      Elst10,r                   -234.42748838 [mEh]    -147.10546987 [kcal/mol]    -615.48928594 [kJ/mol]
      Elst12,r                      2.94934155 [mEh]       1.85073977 [kcal/mol]       7.74349518 [kJ/mol]

    Exchange                      654.76973378 [mEh]     410.87421109 [kcal/mol]    1719.09769919 [kJ/mol]
      Exch10                      649.29381184 [mEh]     407.43801820 [kcal/mol]    1704.72066814 [kJ/mol]
      Exch10(S^2)                 554.29766796 [mEh]     347.82703794 [kcal/mol]    1455.30832673 [kJ/mol]
      Exch11(S^2)                   3.16230814 [mEh]       1.98437832 [kcal/mol]       8.30263888 [kJ/mol]
      Exch12(S^2)                   2.31361380 [mEh]       1.45181458 [kcal/mol]       6.07439218 [kJ/mol]

    Induction                    -244.25681623 [mEh]    -153.27346622 [kcal/mol]    -641.29618266 [kJ/mol]
      Ind20,r                    -398.23532525 [mEh]    -249.89643939 [kcal/mol]   -1045.56670239 [kJ/mol]
      Ind22                       -29.79451539 [mEh]     -18.69634067 [kcal/mol]     -78.22548938 [kJ/mol]
      Exch-Ind20,r                199.33782074 [mEh]     125.08637099 [kcal/mol]     523.36137624 [kJ/mol]
      Exch-Ind22                   14.91372912 [mEh]       9.35850631 [kcal/mol]      39.15599042 [kJ/mol]
      delta HF,r (2)              -30.47852545 [mEh]     -19.12556347 [kcal/mol]     -80.02135755 [kJ/mol]

    Dispersion                    -80.01638368 [mEh]     -50.21103881 [kcal/mol]    -210.08298640 [kJ/mol]
      Disp20                      -99.65892991 [mEh]     -62.53692267 [kcal/mol]    -261.65448443 [kJ/mol]
      Disp21                       16.22346068 [mEh]      10.18037527 [kcal/mol]      42.59469014 [kJ/mol]
      Disp22 (SDQ)                 -0.76221613 [mEh]      -0.47829784 [kcal/mol]      -2.00119818 [kJ/mol]
      Disp22 (T)                  -12.98067955 [mEh]      -8.14549939 [kcal/mol]     -34.08076946 [kJ/mol]
      Est. Disp22 (T)             -13.89635382 [mEh]      -8.72009367 [kcal/mol]     -36.48487192 [kJ/mol]
      Exch-Disp20                  18.07765551 [mEh]      11.34390010 [kcal/mol]      47.46287800 [kJ/mol]

  Total HF                        185.49029350 [mEh]     116.39691647 [kcal/mol]     487.00469849 [kJ/mol]
  Total SAPT0                     103.90901910 [mEh]      65.20389390 [kcal/mol]     272.81309206 [kJ/mol]
  Total SAPT2                      97.45349632 [mEh]      61.15299219 [kcal/mol]     255.86411933 [kJ/mol]
  Total SAPT2+                     99.01838705 [mEh]      62.13497595 [kcal/mol]     259.97273937 [kJ/mol]

  Special recipe for scaled SAPT0 (see Manual):
    Electrostatics sSAPT0        -234.42748838 [mEh]    -147.10546987 [kcal/mol]    -615.48928594 [kJ/mol]
    Exchange sSAPT0               649.29381184 [mEh]     407.43801820 [kcal/mol]    1704.72066814 [kJ/mol]
    Induction sSAPT0             -108.31987382 [mEh]     -67.97174702 [kcal/mol]    -284.39378953 [kJ/mol]
    Dispersion sSAPT0             -70.60286860 [mEh]     -44.30396892 [kcal/mol]    -185.36780597 [kJ/mol]
  Total sSAPT0                    235.94358105 [mEh]     148.05683238 [kcal/mol]     619.46978669 [kJ/mol]
  --------------------------------------------------------------------------------------------------------

*** tstop() called on node54.bme.utexas.edu at Mon Sep  9 16:17:59 2019
Module time:
	user time   =    3178.49 seconds =      52.97 minutes
	system time =      50.57 seconds =       0.84 minutes
	total time  =        829 seconds =      13.82 minutes
Total time:
	user time   =    3333.36 seconds =      55.56 minutes
	system time =      53.53 seconds =       0.89 minutes
	total time  =        873 seconds =      14.55 minutes

    Psi4 stopped on: Monday, 09 September 2019 04:17PM
    Psi4 wall time for execution: 0:14:32.57

*** Psi4 exiting successfully. Buy a developer a beer!
