
    -----------------------------------------------------------------------
          Psi4: An Open-Source Ab Initio Electronic Structure Package
                               Psi4 1.3.2 release

                         Git: Rev {HEAD} ecbda83 


    R. M. Parrish, L. A. Burns, D. G. A. Smith, A. C. Simmonett,
    A. E. DePrince III, E. G. Hohenstein, U. Bozkaya, A. Yu. Sokolov,
    R. Di Remigio, R. M. Richard, J. F. Gonthier, A. M. James,
    H. R. McAlexander, A. Kumar, M. Saitow, X. Wang, B. P. Pritchard,
    P. Verma, H. F. Schaefer III, K. Patkowski, R. A. King, E. F. Valeev,
    F. A. Evangelista, J. M. Turney, T. D. Crawford, and C. D. Sherrill,
    J. Chem. Theory Comput. 13(7) pp 3185--3197 (2017).
    (doi: 10.1021/acs.jctc.7b00174)


                         Additional Contributions by
    P. Kraus, H. Kruse, M. H. Lechner, M. C. Schieber, R. A. Shaw,
    A. Alenaizan, R. Galvelis, Z. L. Glick, S. Lehtola, and J. P. Misiewicz

    -----------------------------------------------------------------------


    Psi4 started on: Monday, 09 September 2019 09:48PM

    Process ID: 63603
    Host:       node54.bme.utexas.edu
    PSIDATADIR: /home/xy3866/psi4conda/share/psi4
    Memory:     500.0 MiB
    Threads:    4
    
  ==> Input File <==

--------------------------------------------------------------------------
#psi4
#
memory 32 gb

molecule  {
0 1
  C        2.1022740    -0.1999910     0.0000010
  H        3.1931760    -0.2048250     0.0000000
  N        1.3929100    -1.2773340     0.0000000
  H        2.0119970    -2.0793170    -0.0000010
  N        1.5658380     1.0343930     0.0000000
  H        0.5512430     1.1716950     0.0000000
  H        2.1722770     1.8295020    -0.0000010
--
0 1
  C       -1.8063992     0.1756969     0.0000000
  H       -2.8973012     0.1805309     0.0000000
  N       -1.0970352     1.2530399     0.0000000
  H       -1.7161222     2.0550229     0.0000000
  N       -1.2699632    -1.0586871     0.0000000
  H       -0.2553682    -1.1959891     0.0000000
  H       -1.8764022    -1.8537961     0.0000000
units angstrom
no_reorient  #important for SAPT in psi4, default
symmetry c1  #important for SAPT in psi4, default
}

set {
basis aug-cc-pVTZ
scf_type DF
freeze_core True
}
energy('sapt2+')
--------------------------------------------------------------------------

  Memory set to  29.802 GiB by Python driver.

  //>>>>>>>>>>>>>>>>>>>>>>>>>>>>>>>>>>>//
  //              Dimer HF             //
  //<<<<<<<<<<<<<<<<<<<<<<<<<<<<<<<<<<<//


*** tstart() called on node54.bme.utexas.edu
*** at Mon Sep  9 21:48:38 2019

   => Loading Basis Set <=

    Name: AUG-CC-PVTZ
    Role: ORBITAL
    Keyword: BASIS
    atoms 1, 8                    entry C          line   235 file /home/xy3866/psi4conda/share/psi4/basis/aug-cc-pvtz.gbs 
    atoms 2, 4, 6-7, 9, 11, 13-14 entry H          line    36 file /home/xy3866/psi4conda/share/psi4/basis/aug-cc-pvtz.gbs 
    atoms 3, 5, 10, 12            entry N          line   281 file /home/xy3866/psi4conda/share/psi4/basis/aug-cc-pvtz.gbs 


         ---------------------------------------------------------
                                   SCF
               by Justin Turney, Rob Parrish, Andy Simmonett
                          and Daniel G. A. Smith
                              RHF Reference
                        4 Threads,  30517 MiB Core
         ---------------------------------------------------------

  ==> Geometry <==

    Molecular point group: c1
    Full point group: C1

    Geometry (in Angstrom), charge = 0, multiplicity = 1:

       Center              X                  Y                   Z               Mass       
    ------------   -----------------  -----------------  -----------------  -----------------
         C            1.954336600000    -0.187843950000     0.000000886638    12.000000000000
         H            3.045238600000    -0.192677950000    -0.000000113362     1.007825032230
         N            1.244972600000    -1.265186950000    -0.000000113362    14.003074004430
         H            1.864059600000    -2.067169950000    -0.000001113362     1.007825032230
         N            1.417900600000     1.046540050000    -0.000000113362    14.003074004430
         H            0.403305600000     1.183842050000    -0.000000113362     1.007825032230
         H            2.024339600000     1.841649050000    -0.000001113362     1.007825032230
         C           -1.954336600000     0.187843950000    -0.000000113362    12.000000000000
         H           -3.045238600000     0.192677950000    -0.000000113362     1.007825032230
         N           -1.244972600000     1.265186950000    -0.000000113362    14.003074004430
         H           -1.864059600000     2.067169950000    -0.000000113362     1.007825032230
         N           -1.417900600000    -1.046540050000    -0.000000113362    14.003074004430
         H           -0.403305600000    -1.183842050000    -0.000000113362     1.007825032230
         H           -2.024339600000    -1.841649050000    -0.000000113362     1.007825032230

  Running in c1 symmetry.

  Rotational constants: A =      0.18003  B =      0.07435  C =      0.05262 [cm^-1]
  Rotational constants: A =   5397.17206  B =   2229.04225  C =   1577.52248 [MHz]
  Nuclear repulsion =  235.508661050905744

  Charge       = 0
  Multiplicity = 1
  Electrons    = 48
  Nalpha       = 24
  Nbeta        = 24

  ==> Algorithm <==

  SCF Algorithm Type is DF.
  DIIS enabled.
  MOM disabled.
  Fractional occupation disabled.
  Guess Type is SAD.
  Energy threshold   = 1.00e-08
  Density threshold  = 1.00e-08
  Integral threshold = 0.00e+00

  ==> Primary Basis <==

  Basis Set: AUG-CC-PVTZ
    Blend: AUG-CC-PVTZ
    Number of shells: 156
    Number of basis function: 460
    Number of Cartesian functions: 530
    Spherical Harmonics?: true
    Max angular momentum: 3

   => Loading Basis Set <=

    Name: (AUG-CC-PVTZ AUX)
    Role: JKFIT
    Keyword: DF_BASIS_SCF
    atoms 1, 8                    entry C          line   162 file /home/xy3866/psi4conda/share/psi4/basis/aug-cc-pvtz-jkfit.gbs 
    atoms 2, 4, 6-7, 9, 11, 13-14 entry H          line    70 file /home/xy3866/psi4conda/share/psi4/basis/aug-cc-pvtz-jkfit.gbs 
    atoms 3, 5, 10, 12            entry N          line   224 file /home/xy3866/psi4conda/share/psi4/basis/aug-cc-pvtz-jkfit.gbs 

  ==> Pre-Iterations <==

   -------------------------------------------------------
    Irrep   Nso     Nmo     Nalpha   Nbeta   Ndocc  Nsocc
   -------------------------------------------------------
     A        460     460       0       0       0       0
   -------------------------------------------------------
    Total     460     460      24      24      24       0
   -------------------------------------------------------

  ==> Integral Setup <==

  ==> DiskDFJK: Density-Fitted J/K Matrices <==

    J tasked:                  Yes
    K tasked:                  Yes
    wK tasked:                  No
    OpenMP threads:              4
    Integrals threads:           4
    Memory [MiB]:            22888
    Algorithm:                Core
    Integral Cache:           SAVE
    Schwarz Cutoff:          1E-12
    Fitting Condition:       1E-10

   => Auxiliary Basis Set <=

  Basis Set: (AUG-CC-PVTZ AUX)
    Blend: AUG-CC-PVTZ-JKFIT
    Number of shells: 292
    Number of basis function: 992
    Number of Cartesian functions: 1226
    Spherical Harmonics?: true
    Max angular momentum: 4

  Minimum eigenvalue in the overlap matrix is 1.6618352460E-05.
  Using Symmetric Orthogonalization.

  SCF Guess: Superposition of Atomic Densities via on-the-fly atomic UHF.

  ==> Iterations <==

                           Total Energy        Delta E     RMS |[F,P]|

   @DF-RHF iter SAD:  -297.21555162699440   -2.97216e+02   0.00000e+00 
   @DF-RHF iter   1:  -298.02826726172657   -8.12716e-01   1.62956e-03 DIIS
   @DF-RHF iter   2:  -298.21831590738685   -1.90049e-01   9.13004e-04 DIIS
   @DF-RHF iter   3:  -298.28879328855157   -7.04774e-02   1.26113e-04 DIIS
   @DF-RHF iter   4:  -298.29124390569899   -2.45062e-03   5.12936e-05 DIIS
   @DF-RHF iter   5:  -298.29154918950076   -3.05284e-04   1.18738e-05 DIIS
   @DF-RHF iter   6:  -298.29158989224243   -4.07027e-05   5.43101e-06 DIIS
   @DF-RHF iter   7:  -298.29159774801940   -7.85578e-06   1.96965e-06 DIIS
   @DF-RHF iter   8:  -298.29159939253429   -1.64451e-06   7.88390e-07 DIIS
   @DF-RHF iter   9:  -298.29159960440205   -2.11868e-07   2.50826e-07 DIIS
   @DF-RHF iter  10:  -298.29159962773542   -2.33334e-08   6.85481e-08 DIIS
   @DF-RHF iter  11:  -298.29159962949797   -1.76254e-09   1.40143e-08 DIIS
   @DF-RHF iter  12:  -298.29159962955555   -5.75824e-11   2.06522e-09 DIIS
  Energy and wave function converged.


  ==> Post-Iterations <==

    Orbital Energies [Eh]
    ---------------------

    Doubly Occupied:                                                      

       1A    -15.540021     2A    -15.540020     3A    -15.512599  
       4A    -15.512598     5A    -11.310004     6A    -11.310003  
       7A     -1.250076     8A     -1.235898     9A     -1.137497  
      10A     -1.119699    11A     -0.831944    12A     -0.800221  
      13A     -0.738389    14A     -0.719931    15A     -0.665653  
      16A     -0.611662    17A     -0.607944    18A     -0.593429  
      19A     -0.519095    20A     -0.505630    21A     -0.446579  
      22A     -0.397603    23A     -0.358746    24A     -0.339401  

    Virtual:                                                              

      25A      0.028683    26A      0.032901    27A      0.037663  
      28A      0.050168    29A      0.050923    30A      0.070981  
      31A      0.077385    32A      0.082633    33A      0.087501  
      34A      0.090103    35A      0.121481    36A      0.131083  
      37A      0.131961    38A      0.133308    39A      0.140993  
      40A      0.141045    41A      0.142077    42A      0.147674  
      43A      0.159719    44A      0.163113    45A      0.169364  
      46A      0.174600    47A      0.188197    48A      0.199906  
      49A      0.211220    50A      0.212591    51A      0.221967  
      52A      0.227437    53A      0.231027    54A      0.238548  
      55A      0.252549    56A      0.268746    57A      0.287578  
      58A      0.300560    59A      0.302571    60A      0.302757  
      61A      0.312703    62A      0.315919    63A      0.318830  
      64A      0.327753    65A      0.333645    66A      0.336842  
      67A      0.352288    68A      0.360501    69A      0.369286  
      70A      0.369952    71A      0.372782    72A      0.378873  
      73A      0.382965    74A      0.390573    75A      0.394076  
      76A      0.396921    77A      0.409828    78A      0.413935  
      79A      0.431516    80A      0.444327    81A      0.447882  
      82A      0.448155    83A      0.453676    84A      0.457210  
      85A      0.457548    86A      0.468395    87A      0.480205  
      88A      0.501526    89A      0.514283    90A      0.520731  
      91A      0.530610    92A      0.537481    93A      0.537952  
      94A      0.554320    95A      0.554792    96A      0.565018  
      97A      0.576581    98A      0.577277    99A      0.595603  
     100A      0.609367   101A      0.628011   102A      0.642135  
     103A      0.648176   104A      0.658688   105A      0.661696  
     106A      0.663390   107A      0.671524   108A      0.673787  
     109A      0.686884   110A      0.687058   111A      0.703885  
     112A      0.720340   113A      0.731285   114A      0.735682  
     115A      0.745054   116A      0.756794   117A      0.772932  
     118A      0.776875   119A      0.778297   120A      0.791779  
     121A      0.793622   122A      0.799572   123A      0.802263  
     124A      0.807813   125A      0.809453   126A      0.830856  
     127A      0.868628   128A      0.877414   129A      0.882834  
     130A      0.900304   131A      0.903225   132A      0.907017  
     133A      0.927903   134A      0.933593   135A      0.939314  
     136A      0.947730   137A      0.959856   138A      0.962740  
     139A      0.963454   140A      0.965875   141A      0.976904  
     142A      0.997607   143A      0.999937   144A      1.000111  
     145A      1.030001   146A      1.033152   147A      1.037085  
     148A      1.038276   149A      1.048843   150A      1.055737  
     151A      1.064064   152A      1.082905   153A      1.091201  
     154A      1.104404   155A      1.112265   156A      1.128406  
     157A      1.136490   158A      1.142854   159A      1.149753  
     160A      1.174159   161A      1.180223   162A      1.182215  
     163A      1.200628   164A      1.206351   165A      1.214690  
     166A      1.230911   167A      1.231989   168A      1.239674  
     169A      1.243004   170A      1.261897   171A      1.272476  
     172A      1.279318   173A      1.285306   174A      1.293285  
     175A      1.303345   176A      1.308263   177A      1.309433  
     178A      1.345889   179A      1.363359   180A      1.373284  
     181A      1.375109   182A      1.376536   183A      1.385440  
     184A      1.410775   185A      1.414242   186A      1.431692  
     187A      1.442060   188A      1.450867   189A      1.462176  
     190A      1.464172   191A      1.475916   192A      1.493222  
     193A      1.497492   194A      1.497870   195A      1.500641  
     196A      1.510636   197A      1.521760   198A      1.522526  
     199A      1.522704   200A      1.525111   201A      1.543285  
     202A      1.567045   203A      1.569626   204A      1.596328  
     205A      1.598407   206A      1.601132   207A      1.609385  
     208A      1.633203   209A      1.651668   210A      1.657669  
     211A      1.676257   212A      1.701778   213A      1.716759  
     214A      1.722316   215A      1.755561   216A      1.757602  
     217A      1.794557   218A      1.838246   219A      1.841121  
     220A      1.846649   221A      1.853284   222A      1.875657  
     223A      1.897894   224A      1.919700   225A      1.934629  
     226A      1.950958   227A      2.001613   228A      2.011702  
     229A      2.011807   230A      2.015958   231A      2.026428  
     232A      2.032592   233A      2.040986   234A      2.114793  
     235A      2.121675   236A      2.129561   237A      2.149933  
     238A      2.166434   239A      2.177049   240A      2.179694  
     241A      2.187521   242A      2.191328   243A      2.228128  
     244A      2.230863   245A      2.236585   246A      2.259672  
     247A      2.277366   248A      2.284705   249A      2.290283  
     250A      2.309668   251A      2.338838   252A      2.339593  
     253A      2.362367   254A      2.408037   255A      2.408429  
     256A      2.412556   257A      2.446036   258A      2.459380  
     259A      2.491170   260A      2.505183   261A      2.539770  
     262A      2.541705   263A      2.547706   264A      2.548779  
     265A      2.575907   266A      2.576735   267A      2.587623  
     268A      2.596625   269A      2.624931   270A      2.633864  
     271A      2.648503   272A      2.662672   273A      2.670777  
     274A      2.722552   275A      2.730670   276A      2.732464  
     277A      2.764983   278A      2.776483   279A      2.781923  
     280A      2.798043   281A      2.848357   282A      2.910407  
     283A      2.935981   284A      3.001465   285A      3.044886  
     286A      3.064046   287A      3.127391   288A      3.135224  
     289A      3.135886   290A      3.189157   291A      3.220036  
     292A      3.279467   293A      3.328606   294A      3.357745  
     295A      3.433748   296A      3.457345   297A      3.461115  
     298A      3.492600   299A      3.526104   300A      3.544271  
     301A      3.618970   302A      3.641884   303A      3.671830  
     304A      3.709624   305A      3.714800   306A      3.747203  
     307A      3.798734   308A      3.816717   309A      3.832536  
     310A      3.835534   311A      3.876537   312A      3.897313  
     313A      3.908614   314A      3.912217   315A      3.953218  
     316A      3.971203   317A      3.994925   318A      4.063466  
     319A      4.096302   320A      4.108524   321A      4.122937  
     322A      4.151377   323A      4.151898   324A      4.165691  
     325A      4.176105   326A      4.205762   327A      4.208038  
     328A      4.220532   329A      4.237396   330A      4.252841  
     331A      4.258430   332A      4.270499   333A      4.281673  
     334A      4.298416   335A      4.336379   336A      4.338699  
     337A      4.343649   338A      4.366874   339A      4.381809  
     340A      4.383743   341A      4.412882   342A      4.425356  
     343A      4.446445   344A      4.461269   345A      4.489399  
     346A      4.495285   347A      4.562610   348A      4.581487  
     349A      4.626598   350A      4.629214   351A      4.638281  
     352A      4.650156   353A      4.652449   354A      4.688261  
     355A      4.689188   356A      4.743507   357A      4.748527  
     358A      4.763903   359A      4.799250   360A      4.819427  
     361A      4.826604   362A      4.841935   363A      4.845652  
     364A      4.868844   365A      4.886053   366A      4.894443  
     367A      4.939462   368A      4.947111   369A      4.949426  
     370A      4.963706   371A      4.984492   372A      4.986566  
     373A      4.995050   374A      5.064933   375A      5.069018  
     376A      5.084890   377A      5.090186   378A      5.152632  
     379A      5.154845   380A      5.182129   381A      5.202114  
     382A      5.238540   383A      5.242933   384A      5.257004  
     385A      5.280704   386A      5.291188   387A      5.358773  
     388A      5.383623   389A      5.423127   390A      5.438147  
     391A      5.484041   392A      5.512506   393A      5.523903  
     394A      5.527406   395A      5.537913   396A      5.545175  
     397A      5.551195   398A      5.569637   399A      5.585135  
     400A      5.601177   401A      5.601428   402A      5.645464  
     403A      5.660060   404A      5.671856   405A      5.739775  
     406A      5.748343   407A      5.749375   408A      5.749999  
     409A      5.759659   410A      5.782743   411A      5.832920  
     412A      5.853213   413A      5.879620   414A      5.908606  
     415A      5.908981   416A      5.980298   417A      5.981082  
     418A      6.001457   419A      6.041254   420A      6.059604  
     421A      6.130644   422A      6.138368   423A      6.152155  
     424A      6.160397   425A      6.217079   426A      6.229269  
     427A      6.240160   428A      6.268973   429A      6.292050  
     430A      6.298346   431A      6.377673   432A      6.412907  
     433A      6.413047   434A      6.449170   435A      6.554860  
     436A      6.609194   437A      6.636864   438A      6.696938  
     439A      6.734985   440A      6.763656   441A      6.838229  
     442A      6.951746   443A      7.020703   444A      7.088021  
     445A      7.167295   446A      7.219611   447A      7.502464  
     448A      7.589337   449A      7.626341   450A      7.664028  
     451A      7.765575   452A      7.783549   453A      8.003264  
     454A      8.031686   455A     17.233067   456A     17.306377  
     457A     17.779465   458A     17.968243   459A     19.282669  
     460A     19.293679  

    Final Occupation by Irrep:
              A 
    DOCC [    24 ]

  @DF-RHF Final Energy:  -298.29159962955555

   => Energetics <=

    Nuclear Repulsion Energy =            235.5086610509057437
    One-Electron Energy =                -872.3912402704449960
    Two-Electron Energy =                 338.5909795899837036
    Total Energy =                       -298.2915996295555487

Computation Completed


Properties will be evaluated at   0.000000,   0.000000,   0.000000 [a0]

Properties computed using the SCF density matrix

  Nuclear Dipole Moment: [e a0]
     X:    -0.0000      Y:    -0.0000      Z:    -0.0000

  Electronic Dipole Moment: [e a0]
     X:     0.0000      Y:    -0.0000      Z:     0.0000

  Dipole Moment: [e a0]
     X:     0.0000      Y:    -0.0000      Z:    -0.0000     Total:     0.0000

  Dipole Moment: [D]
     X:     0.0000      Y:    -0.0000      Z:    -0.0000     Total:     0.0000


*** tstop() called on node54.bme.utexas.edu at Mon Sep  9 21:49:01 2019
Module time:
	user time   =      85.45 seconds =       1.42 minutes
	system time =       1.55 seconds =       0.03 minutes
	total time  =         23 seconds =       0.38 minutes
Total time:
	user time   =      85.45 seconds =       1.42 minutes
	system time =       1.55 seconds =       0.03 minutes
	total time  =         23 seconds =       0.38 minutes

  //>>>>>>>>>>>>>>>>>>>>>>>>>>>>>>>>>>>//
  //            Monomer A HF           //
  //<<<<<<<<<<<<<<<<<<<<<<<<<<<<<<<<<<<//


*** tstart() called on node54.bme.utexas.edu
*** at Mon Sep  9 21:49:01 2019

   => Loading Basis Set <=

    Name: AUG-CC-PVTZ
    Role: ORBITAL
    Keyword: BASIS
    atoms 1, 8                    entry C          line   235 file /home/xy3866/psi4conda/share/psi4/basis/aug-cc-pvtz.gbs 
    atoms 2, 4, 6-7, 9, 11, 13-14 entry H          line    36 file /home/xy3866/psi4conda/share/psi4/basis/aug-cc-pvtz.gbs 
    atoms 3, 5, 10, 12            entry N          line   281 file /home/xy3866/psi4conda/share/psi4/basis/aug-cc-pvtz.gbs 


         ---------------------------------------------------------
                                   SCF
               by Justin Turney, Rob Parrish, Andy Simmonett
                          and Daniel G. A. Smith
                              RHF Reference
                        4 Threads,  30517 MiB Core
         ---------------------------------------------------------

  ==> Geometry <==

    Molecular point group: c1
    Full point group: C1

    Geometry (in Angstrom), charge = 0, multiplicity = 1:

       Center              X                  Y                   Z               Mass       
    ------------   -----------------  -----------------  -----------------  -----------------
         C            1.954336600000    -0.187843950000     0.000000886638    12.000000000000
         H            3.045238600000    -0.192677950000    -0.000000113362     1.007825032230
         N            1.244972600000    -1.265186950000    -0.000000113362    14.003074004430
         H            1.864059600000    -2.067169950000    -0.000001113362     1.007825032230
         N            1.417900600000     1.046540050000    -0.000000113362    14.003074004430
         H            0.403305600000     1.183842050000    -0.000000113362     1.007825032230
         H            2.024339600000     1.841649050000    -0.000001113362     1.007825032230
      Gh(C)          -1.954336600000     0.187843950000    -0.000000113362    12.000000000000
      Gh(H)          -3.045238600000     0.192677950000    -0.000000113362     1.007825032230
      Gh(N)          -1.244972600000     1.265186950000    -0.000000113362    14.003074004430
      Gh(H)          -1.864059600000     2.067169950000    -0.000000113362     1.007825032230
      Gh(N)          -1.417900600000    -1.046540050000    -0.000000113362    14.003074004430
      Gh(H)          -0.403305600000    -1.183842050000    -0.000000113362     1.007825032230
      Gh(H)          -2.024339600000    -1.841649050000    -0.000000113362     1.007825032230

  Running in c1 symmetry.

  Rotational constants: A =      0.18003  B =      0.07435  C =      0.05262 [cm^-1]
  Rotational constants: A =   5397.17206  B =   2229.04225  C =   1577.52248 [MHz]
  Nuclear repulsion =   72.180708619553755

  Charge       = 0
  Multiplicity = 1
  Electrons    = 24
  Nalpha       = 12
  Nbeta        = 12

  ==> Algorithm <==

  SCF Algorithm Type is DF.
  DIIS enabled.
  MOM disabled.
  Fractional occupation disabled.
  Guess Type is SAD.
  Energy threshold   = 1.00e-08
  Density threshold  = 1.00e-08
  Integral threshold = 0.00e+00

  ==> Primary Basis <==

  Basis Set: AUG-CC-PVTZ
    Blend: AUG-CC-PVTZ
    Number of shells: 156
    Number of basis function: 460
    Number of Cartesian functions: 530
    Spherical Harmonics?: true
    Max angular momentum: 3

   => Loading Basis Set <=

    Name: (AUG-CC-PVTZ AUX)
    Role: JKFIT
    Keyword: DF_BASIS_SCF
    atoms 1, 8                    entry C          line   162 file /home/xy3866/psi4conda/share/psi4/basis/aug-cc-pvtz-jkfit.gbs 
    atoms 2, 4, 6-7, 9, 11, 13-14 entry H          line    70 file /home/xy3866/psi4conda/share/psi4/basis/aug-cc-pvtz-jkfit.gbs 
    atoms 3, 5, 10, 12            entry N          line   224 file /home/xy3866/psi4conda/share/psi4/basis/aug-cc-pvtz-jkfit.gbs 

  ==> Pre-Iterations <==

   -------------------------------------------------------
    Irrep   Nso     Nmo     Nalpha   Nbeta   Ndocc  Nsocc
   -------------------------------------------------------
     A        460     460       0       0       0       0
   -------------------------------------------------------
    Total     460     460      12      12      12       0
   -------------------------------------------------------

  ==> Integral Setup <==

  ==> DiskDFJK: Density-Fitted J/K Matrices <==

    J tasked:                  Yes
    K tasked:                  Yes
    wK tasked:                  No
    OpenMP threads:              4
    Integrals threads:           4
    Memory [MiB]:            22888
    Algorithm:                Core
    Integral Cache:           LOAD
    Schwarz Cutoff:          1E-12
    Fitting Condition:       1E-10

   => Auxiliary Basis Set <=

  Basis Set: (AUG-CC-PVTZ AUX)
    Blend: AUG-CC-PVTZ-JKFIT
    Number of shells: 292
    Number of basis function: 992
    Number of Cartesian functions: 1226
    Spherical Harmonics?: true
    Max angular momentum: 4

  Minimum eigenvalue in the overlap matrix is 1.6618352460E-05.
  Using Symmetric Orthogonalization.

  SCF Guess: Superposition of Atomic Densities via on-the-fly atomic UHF.

  ==> Iterations <==

                           Total Energy        Delta E     RMS |[F,P]|

   @DF-RHF iter SAD:  -148.38772549245050   -1.48388e+02   0.00000e+00 
   @DF-RHF iter   1:  -148.99749125109213   -6.09766e-01   1.19326e-03 DIIS
   @DF-RHF iter   2:  -149.09949866459289   -1.02007e-01   7.04054e-04 DIIS
   @DF-RHF iter   3:  -149.14142435741442   -4.19257e-02   9.82753e-05 DIIS
   @DF-RHF iter   4:  -149.14283952143251   -1.41516e-03   4.86486e-05 DIIS
   @DF-RHF iter   5:  -149.14311711374054   -2.77592e-04   8.88240e-06 DIIS
   @DF-RHF iter   6:  -149.14314577392881   -2.86602e-05   4.19430e-06 DIIS
   @DF-RHF iter   7:  -149.14315048101804   -4.70709e-06   1.68836e-06 DIIS
   @DF-RHF iter   8:  -149.14315142270618   -9.41688e-07   4.98906e-07 DIIS
   @DF-RHF iter   9:  -149.14315150863385   -8.59277e-08   1.52369e-07 DIIS
   @DF-RHF iter  10:  -149.14315151621295   -7.57910e-09   3.78602e-08 DIIS
   @DF-RHF iter  11:  -149.14315151668762   -4.74671e-10   7.22793e-09 DIIS
  Energy and wave function converged.


  ==> Post-Iterations <==

    Orbital Energies [Eh]
    ---------------------

    Doubly Occupied:                                                      

       1A    -15.581648     2A    -15.519538     3A    -11.314765  
       4A     -1.258997     5A     -1.137043     6A     -0.829936  
       7A     -0.745808     8A     -0.639648     9A     -0.615819  
      10A     -0.530065    11A     -0.419649    12A     -0.359455  

    Virtual:                                                              

      13A      0.021450    14A      0.030755    15A      0.037091  
      16A      0.050432    17A      0.051948    18A      0.070273  
      19A      0.074828    20A      0.074846    21A      0.086396  
      22A      0.088490    23A      0.097835    24A      0.113495  
      25A      0.126279    26A      0.128557    27A      0.131267  
      28A      0.137934    29A      0.140555    30A      0.144183  
      31A      0.150868    32A      0.162011    33A      0.165787  
      34A      0.167047    35A      0.187952    36A      0.198265  
      37A      0.205354    38A      0.212397    39A      0.218621  
      40A      0.223809    41A      0.229060    42A      0.240423  
      43A      0.250011    44A      0.254137    45A      0.278318  
      46A      0.291492    47A      0.299019    48A      0.300088  
      49A      0.307314    50A      0.310820    51A      0.318642  
      52A      0.323943    53A      0.331345    54A      0.344632  
      55A      0.351468    56A      0.353952    57A      0.358556  
      58A      0.367633    59A      0.371873    60A      0.373496  
      61A      0.382262    62A      0.384807    63A      0.394388  
      64A      0.400085    65A      0.402210    66A      0.403135  
      67A      0.418369    68A      0.421078    69A      0.429297  
      70A      0.437372    71A      0.449354    72A      0.456955  
      73A      0.460037    74A      0.470151    75A      0.472931  
      76A      0.485805    77A      0.506701    78A      0.508493  
      79A      0.519609    80A      0.530193    81A      0.535153  
      82A      0.537780    83A      0.555918    84A      0.570813  
      85A      0.573417    86A      0.594296    87A      0.597745  
      88A      0.615272    89A      0.638460    90A      0.642308  
      91A      0.648483    92A      0.656094    93A      0.664836  
      94A      0.673677    95A      0.687420    96A      0.699490  
      97A      0.707495    98A      0.716780    99A      0.720346  
     100A      0.728709   101A      0.741486   102A      0.754053  
     103A      0.769152   104A      0.770032   105A      0.776165  
     106A      0.789403   107A      0.796176   108A      0.803193  
     109A      0.811007   110A      0.823125   111A      0.827571  
     112A      0.841349   113A      0.844890   114A      0.850895  
     115A      0.855243   116A      0.876971   117A      0.887978  
     118A      0.899500   119A      0.906627   120A      0.913947  
     121A      0.919854   122A      0.933008   123A      0.939572  
     124A      0.945892   125A      0.954671   126A      0.958436  
     127A      0.974630   128A      0.992234   129A      0.995114  
     130A      1.000129   131A      1.018150   132A      1.024971  
     133A      1.034232   134A      1.043855   135A      1.057476  
     136A      1.059741   137A      1.062976   138A      1.090677  
     139A      1.093709   140A      1.097548   141A      1.101591  
     142A      1.109778   143A      1.118303   144A      1.134115  
     145A      1.140472   146A      1.142785   147A      1.152118  
     148A      1.166797   149A      1.167512   150A      1.194323  
     151A      1.211664   152A      1.215450   153A      1.222130  
     154A      1.234674   155A      1.251034   156A      1.254641  
     157A      1.279952   158A      1.284185   159A      1.290112  
     160A      1.300116   161A      1.317268   162A      1.322882  
     163A      1.346242   164A      1.354930   165A      1.359795  
     166A      1.372666   167A      1.385345   168A      1.386717  
     169A      1.399076   170A      1.422846   171A      1.432227  
     172A      1.437505   173A      1.444067   174A      1.457801  
     175A      1.478800   176A      1.481684   177A      1.499078  
     178A      1.506391   179A      1.508369   180A      1.523132  
     181A      1.526046   182A      1.530385   183A      1.540378  
     184A      1.547650   185A      1.574306   186A      1.591369  
     187A      1.602329   188A      1.605323   189A      1.620951  
     190A      1.649655   191A      1.655788   192A      1.658058  
     193A      1.682612   194A      1.688660   195A      1.703228  
     196A      1.714941   197A      1.720897   198A      1.721730  
     199A      1.736594   200A      1.736626   201A      1.761666  
     202A      1.763906   203A      1.771702   204A      1.782446  
     205A      1.788100   206A      1.805803   207A      1.809791  
     208A      1.847390   209A      1.857016   210A      1.867221  
     211A      1.890198   212A      1.909059   213A      1.915955  
     214A      1.924571   215A      1.937028   216A      2.012237  
     217A      2.020360   218A      2.068063   219A      2.069285  
     220A      2.075359   221A      2.078803   222A      2.097660  
     223A      2.107578   224A      2.125524   225A      2.131534  
     226A      2.153007   227A      2.187758   228A      2.192761  
     229A      2.199536   230A      2.223675   231A      2.239495  
     232A      2.242936   233A      2.264284   234A      2.314385  
     235A      2.326724   236A      2.351950   237A      2.363744  
     238A      2.385349   239A      2.399069   240A      2.412585  
     241A      2.420585   242A      2.435047   243A      2.449374  
     244A      2.494839   245A      2.503697   246A      2.509988  
     247A      2.515181   248A      2.532757   249A      2.539154  
     250A      2.543621   251A      2.576958   252A      2.581841  
     253A      2.611737   254A      2.627954   255A      2.650051  
     256A      2.692164   257A      2.701563   258A      2.716934  
     259A      2.728196   260A      2.739079   261A      2.747032  
     262A      2.762219   263A      2.781313   264A      2.830892  
     265A      2.850897   266A      2.858047   267A      2.869480  
     268A      2.901248   269A      2.912859   270A      2.973552  
     271A      3.018360   272A      3.033904   273A      3.047106  
     274A      3.097902   275A      3.104926   276A      3.127766  
     277A      3.146323   278A      3.192848   279A      3.195517  
     280A      3.217974   281A      3.273041   282A      3.295975  
     283A      3.364790   284A      3.367025   285A      3.449150  
     286A      3.474507   287A      3.491590   288A      3.523409  
     289A      3.589076   290A      3.632600   291A      3.632860  
     292A      3.677766   293A      3.702684   294A      3.779409  
     295A      3.829042   296A      3.845275   297A      3.854070  
     298A      3.882281   299A      3.895280   300A      3.951710  
     301A      4.009005   302A      4.066991   303A      4.075356  
     304A      4.095094   305A      4.123946   306A      4.158826  
     307A      4.173257   308A      4.174983   309A      4.187856  
     310A      4.196036   311A      4.233841   312A      4.262653  
     313A      4.275907   314A      4.336301   315A      4.342055  
     316A      4.358222   317A      4.404668   318A      4.405387  
     319A      4.452192   320A      4.457351   321A      4.458478  
     322A      4.479222   323A      4.512092   324A      4.569296  
     325A      4.576655   326A      4.597735   327A      4.625390  
     328A      4.628668   329A      4.666732   330A      4.681454  
     331A      4.705959   332A      4.710256   333A      4.753132  
     334A      4.785710   335A      4.786651   336A      4.815386  
     337A      4.819449   338A      4.839476   339A      4.871295  
     340A      4.891583   341A      4.896946   342A      4.918541  
     343A      4.920233   344A      4.931595   345A      4.942073  
     346A      4.954775   347A      4.991937   348A      4.994972  
     349A      4.996654   350A      5.018442   351A      5.032340  
     352A      5.044241   353A      5.064673   354A      5.079453  
     355A      5.135304   356A      5.148658   357A      5.162024  
     358A      5.203293   359A      5.219529   360A      5.249374  
     361A      5.258302   362A      5.289836   363A      5.325693  
     364A      5.331115   365A      5.340691   366A      5.355973  
     367A      5.378330   368A      5.410918   369A      5.426817  
     370A      5.463259   371A      5.473446   372A      5.492395  
     373A      5.514188   374A      5.539240   375A      5.543600  
     376A      5.569296   377A      5.581449   378A      5.617052  
     379A      5.637234   380A      5.659696   381A      5.669218  
     382A      5.757900   383A      5.795961   384A      5.796986  
     385A      5.808871   386A      5.838172   387A      5.874894  
     388A      5.915147   389A      5.918604   390A      5.973131  
     391A      6.007591   392A      6.017656   393A      6.076361  
     394A      6.110263   395A      6.127140   396A      6.129081  
     397A      6.160340   398A      6.180042   399A      6.214966  
     400A      6.228559   401A      6.247938   402A      6.295216  
     403A      6.310276   404A      6.325643   405A      6.353379  
     406A      6.467924   407A      6.484259   408A      6.494232  
     409A      6.558267   410A      6.596888   411A      6.617467  
     412A      6.629257   413A      6.653946   414A      6.676704  
     415A      6.716594   416A      6.771252   417A      6.780002  
     418A      6.803798   419A      6.909023   420A      6.960211  
     421A      6.969313   422A      7.055690   423A      7.101847  
     424A      7.146618   425A      7.319844   426A      7.435835  
     427A      7.485933   428A      7.546763   429A      7.594952  
     430A      7.608495   431A      7.686345   432A      7.704550  
     433A      7.717431   434A      7.766717   435A      7.801621  
     436A      7.814581   437A      7.899632   438A      8.088835  
     439A      8.343671   440A      8.445064   441A      8.553168  
     442A      8.650901   443A      9.070835   444A      9.363031  
     445A      9.464073   446A      9.523493   447A      9.620659  
     448A     10.241816   449A     10.824468   450A     11.296130  
     451A     11.687437   452A     11.828324   453A     12.225797  
     454A     12.987645   455A     17.278344   456A     17.889833  
     457A     19.250974   458A     52.313261   459A     59.648957  
     460A     63.018718  

    Final Occupation by Irrep:
              A 
    DOCC [    12 ]

  @DF-RHF Final Energy:  -149.14315151668762

   => Energetics <=

    Nuclear Repulsion Energy =             72.1807086195537551
    One-Electron Energy =                -344.7429745083247781
    Two-Electron Energy =                 123.4191143720834134
    Total Energy =                       -149.1431515166876238

Computation Completed


Properties will be evaluated at   0.000000,   0.000000,   0.000000 [a0]

Properties computed using the SCF density matrix

  Nuclear Dipole Moment: [e a0]
     X:    71.2485      Y:    -3.5753      Z:     0.0000

  Electronic Dipole Moment: [e a0]
     X:   -70.4263      Y:     4.5675      Z:    -0.0000

  Dipole Moment: [e a0]
     X:     0.8222      Y:     0.9922      Z:    -0.0000     Total:     1.2886

  Dipole Moment: [D]
     X:     2.0899      Y:     2.5220      Z:    -0.0000     Total:     3.2754


*** tstop() called on node54.bme.utexas.edu at Mon Sep  9 21:49:14 2019
Module time:
	user time   =      46.64 seconds =       0.78 minutes
	system time =       0.86 seconds =       0.01 minutes
	total time  =         13 seconds =       0.22 minutes
Total time:
	user time   =     132.11 seconds =       2.20 minutes
	system time =       2.41 seconds =       0.04 minutes
	total time  =         36 seconds =       0.60 minutes

  //>>>>>>>>>>>>>>>>>>>>>>>>>>>>>>>>>>>//
  //            Monomer B HF           //
  //<<<<<<<<<<<<<<<<<<<<<<<<<<<<<<<<<<<//


*** tstart() called on node54.bme.utexas.edu
*** at Mon Sep  9 21:49:14 2019

   => Loading Basis Set <=

    Name: AUG-CC-PVTZ
    Role: ORBITAL
    Keyword: BASIS
    atoms 1, 8                    entry C          line   235 file /home/xy3866/psi4conda/share/psi4/basis/aug-cc-pvtz.gbs 
    atoms 2, 4, 6-7, 9, 11, 13-14 entry H          line    36 file /home/xy3866/psi4conda/share/psi4/basis/aug-cc-pvtz.gbs 
    atoms 3, 5, 10, 12            entry N          line   281 file /home/xy3866/psi4conda/share/psi4/basis/aug-cc-pvtz.gbs 


         ---------------------------------------------------------
                                   SCF
               by Justin Turney, Rob Parrish, Andy Simmonett
                          and Daniel G. A. Smith
                              RHF Reference
                        4 Threads,  30517 MiB Core
         ---------------------------------------------------------

  ==> Geometry <==

    Molecular point group: c1
    Full point group: C1

    Geometry (in Angstrom), charge = 0, multiplicity = 1:

       Center              X                  Y                   Z               Mass       
    ------------   -----------------  -----------------  -----------------  -----------------
      Gh(C)           1.954336600000    -0.187843950000     0.000000886638    12.000000000000
      Gh(H)           3.045238600000    -0.192677950000    -0.000000113362     1.007825032230
      Gh(N)           1.244972600000    -1.265186950000    -0.000000113362    14.003074004430
      Gh(H)           1.864059600000    -2.067169950000    -0.000001113362     1.007825032230
      Gh(N)           1.417900600000     1.046540050000    -0.000000113362    14.003074004430
      Gh(H)           0.403305600000     1.183842050000    -0.000000113362     1.007825032230
      Gh(H)           2.024339600000     1.841649050000    -0.000001113362     1.007825032230
         C           -1.954336600000     0.187843950000    -0.000000113362    12.000000000000
         H           -3.045238600000     0.192677950000    -0.000000113362     1.007825032230
         N           -1.244972600000     1.265186950000    -0.000000113362    14.003074004430
         H           -1.864059600000     2.067169950000    -0.000000113362     1.007825032230
         N           -1.417900600000    -1.046540050000    -0.000000113362    14.003074004430
         H           -0.403305600000    -1.183842050000    -0.000000113362     1.007825032230
         H           -2.024339600000    -1.841649050000    -0.000000113362     1.007825032230

  Running in c1 symmetry.

  Rotational constants: A =      0.18003  B =      0.07435  C =      0.05262 [cm^-1]
  Rotational constants: A =   5397.17206  B =   2229.04225  C =   1577.52248 [MHz]
  Nuclear repulsion =   72.180708619570439

  Charge       = 0
  Multiplicity = 1
  Electrons    = 24
  Nalpha       = 12
  Nbeta        = 12

  ==> Algorithm <==

  SCF Algorithm Type is DF.
  DIIS enabled.
  MOM disabled.
  Fractional occupation disabled.
  Guess Type is SAD.
  Energy threshold   = 1.00e-08
  Density threshold  = 1.00e-08
  Integral threshold = 0.00e+00

  ==> Primary Basis <==

  Basis Set: AUG-CC-PVTZ
    Blend: AUG-CC-PVTZ
    Number of shells: 156
    Number of basis function: 460
    Number of Cartesian functions: 530
    Spherical Harmonics?: true
    Max angular momentum: 3

   => Loading Basis Set <=

    Name: (AUG-CC-PVTZ AUX)
    Role: JKFIT
    Keyword: DF_BASIS_SCF
    atoms 1, 8                    entry C          line   162 file /home/xy3866/psi4conda/share/psi4/basis/aug-cc-pvtz-jkfit.gbs 
    atoms 2, 4, 6-7, 9, 11, 13-14 entry H          line    70 file /home/xy3866/psi4conda/share/psi4/basis/aug-cc-pvtz-jkfit.gbs 
    atoms 3, 5, 10, 12            entry N          line   224 file /home/xy3866/psi4conda/share/psi4/basis/aug-cc-pvtz-jkfit.gbs 

  ==> Pre-Iterations <==

   -------------------------------------------------------
    Irrep   Nso     Nmo     Nalpha   Nbeta   Ndocc  Nsocc
   -------------------------------------------------------
     A        460     460       0       0       0       0
   -------------------------------------------------------
    Total     460     460      12      12      12       0
   -------------------------------------------------------

  ==> Integral Setup <==

  ==> DiskDFJK: Density-Fitted J/K Matrices <==

    J tasked:                  Yes
    K tasked:                  Yes
    wK tasked:                  No
    OpenMP threads:              4
    Integrals threads:           4
    Memory [MiB]:            22888
    Algorithm:                Core
    Integral Cache:           LOAD
    Schwarz Cutoff:          1E-12
    Fitting Condition:       1E-10

   => Auxiliary Basis Set <=

  Basis Set: (AUG-CC-PVTZ AUX)
    Blend: AUG-CC-PVTZ-JKFIT
    Number of shells: 292
    Number of basis function: 992
    Number of Cartesian functions: 1226
    Spherical Harmonics?: true
    Max angular momentum: 4

  Minimum eigenvalue in the overlap matrix is 1.6618352460E-05.
  Using Symmetric Orthogonalization.

  SCF Guess: Superposition of Atomic Densities via on-the-fly atomic UHF.

  ==> Iterations <==

                           Total Energy        Delta E     RMS |[F,P]|

   @DF-RHF iter SAD:  -148.38772549257723   -1.48388e+02   0.00000e+00 
   @DF-RHF iter   1:  -148.99749125121997   -6.09766e-01   1.19326e-03 DIIS
   @DF-RHF iter   2:  -149.09949866472107   -1.02007e-01   7.04054e-04 DIIS
   @DF-RHF iter   3:  -149.14142435754209   -4.19257e-02   9.82753e-05 DIIS
   @DF-RHF iter   4:  -149.14283952155989   -1.41516e-03   4.86486e-05 DIIS
   @DF-RHF iter   5:  -149.14311711386836   -2.77592e-04   8.88240e-06 DIIS
   @DF-RHF iter   6:  -149.14314577405665   -2.86602e-05   4.19430e-06 DIIS
   @DF-RHF iter   7:  -149.14315048114517   -4.70709e-06   1.68836e-06 DIIS
   @DF-RHF iter   8:  -149.14315142283309   -9.41688e-07   4.98906e-07 DIIS
   @DF-RHF iter   9:  -149.14315150876118   -8.59281e-08   1.52369e-07 DIIS
   @DF-RHF iter  10:  -149.14315151634040   -7.57922e-09   3.78602e-08 DIIS
   @DF-RHF iter  11:  -149.14315151681484   -4.74444e-10   7.22793e-09 DIIS
  Energy and wave function converged.


  ==> Post-Iterations <==

    Orbital Energies [Eh]
    ---------------------

    Doubly Occupied:                                                      

       1A    -15.581648     2A    -15.519538     3A    -11.314765  
       4A     -1.258997     5A     -1.137043     6A     -0.829936  
       7A     -0.745808     8A     -0.639648     9A     -0.615819  
      10A     -0.530065    11A     -0.419649    12A     -0.359455  

    Virtual:                                                              

      13A      0.021450    14A      0.030755    15A      0.037091  
      16A      0.050432    17A      0.051948    18A      0.070273  
      19A      0.074828    20A      0.074846    21A      0.086396  
      22A      0.088490    23A      0.097835    24A      0.113495  
      25A      0.126279    26A      0.128557    27A      0.131267  
      28A      0.137934    29A      0.140555    30A      0.144183  
      31A      0.150868    32A      0.162011    33A      0.165787  
      34A      0.167047    35A      0.187952    36A      0.198265  
      37A      0.205354    38A      0.212397    39A      0.218621  
      40A      0.223809    41A      0.229060    42A      0.240423  
      43A      0.250011    44A      0.254137    45A      0.278318  
      46A      0.291492    47A      0.299019    48A      0.300088  
      49A      0.307314    50A      0.310820    51A      0.318642  
      52A      0.323943    53A      0.331345    54A      0.344632  
      55A      0.351468    56A      0.353952    57A      0.358556  
      58A      0.367633    59A      0.371873    60A      0.373496  
      61A      0.382262    62A      0.384807    63A      0.394388  
      64A      0.400085    65A      0.402210    66A      0.403135  
      67A      0.418369    68A      0.421078    69A      0.429297  
      70A      0.437372    71A      0.449354    72A      0.456955  
      73A      0.460037    74A      0.470151    75A      0.472931  
      76A      0.485805    77A      0.506701    78A      0.508493  
      79A      0.519609    80A      0.530193    81A      0.535153  
      82A      0.537780    83A      0.555918    84A      0.570813  
      85A      0.573417    86A      0.594296    87A      0.597745  
      88A      0.615272    89A      0.638460    90A      0.642308  
      91A      0.648483    92A      0.656094    93A      0.664836  
      94A      0.673677    95A      0.687420    96A      0.699490  
      97A      0.707495    98A      0.716780    99A      0.720346  
     100A      0.728709   101A      0.741486   102A      0.754053  
     103A      0.769152   104A      0.770032   105A      0.776165  
     106A      0.789403   107A      0.796176   108A      0.803193  
     109A      0.811007   110A      0.823125   111A      0.827571  
     112A      0.841349   113A      0.844890   114A      0.850895  
     115A      0.855243   116A      0.876971   117A      0.887978  
     118A      0.899500   119A      0.906627   120A      0.913947  
     121A      0.919854   122A      0.933008   123A      0.939572  
     124A      0.945892   125A      0.954671   126A      0.958436  
     127A      0.974630   128A      0.992234   129A      0.995114  
     130A      1.000129   131A      1.018150   132A      1.024971  
     133A      1.034232   134A      1.043855   135A      1.057476  
     136A      1.059741   137A      1.062976   138A      1.090677  
     139A      1.093709   140A      1.097548   141A      1.101591  
     142A      1.109778   143A      1.118303   144A      1.134115  
     145A      1.140472   146A      1.142785   147A      1.152118  
     148A      1.166797   149A      1.167512   150A      1.194323  
     151A      1.211664   152A      1.215450   153A      1.222130  
     154A      1.234674   155A      1.251034   156A      1.254641  
     157A      1.279952   158A      1.284185   159A      1.290112  
     160A      1.300116   161A      1.317268   162A      1.322882  
     163A      1.346242   164A      1.354930   165A      1.359795  
     166A      1.372666   167A      1.385345   168A      1.386717  
     169A      1.399076   170A      1.422846   171A      1.432227  
     172A      1.437505   173A      1.444067   174A      1.457801  
     175A      1.478800   176A      1.481684   177A      1.499078  
     178A      1.506391   179A      1.508369   180A      1.523132  
     181A      1.526046   182A      1.530385   183A      1.540378  
     184A      1.547650   185A      1.574306   186A      1.591369  
     187A      1.602329   188A      1.605323   189A      1.620951  
     190A      1.649655   191A      1.655788   192A      1.658058  
     193A      1.682612   194A      1.688660   195A      1.703228  
     196A      1.714941   197A      1.720897   198A      1.721730  
     199A      1.736594   200A      1.736626   201A      1.761666  
     202A      1.763906   203A      1.771702   204A      1.782446  
     205A      1.788100   206A      1.805803   207A      1.809791  
     208A      1.847390   209A      1.857016   210A      1.867221  
     211A      1.890198   212A      1.909059   213A      1.915955  
     214A      1.924571   215A      1.937028   216A      2.012237  
     217A      2.020360   218A      2.068063   219A      2.069285  
     220A      2.075359   221A      2.078803   222A      2.097660  
     223A      2.107578   224A      2.125524   225A      2.131534  
     226A      2.153007   227A      2.187758   228A      2.192761  
     229A      2.199536   230A      2.223675   231A      2.239495  
     232A      2.242936   233A      2.264284   234A      2.314385  
     235A      2.326724   236A      2.351950   237A      2.363744  
     238A      2.385349   239A      2.399069   240A      2.412585  
     241A      2.420585   242A      2.435047   243A      2.449374  
     244A      2.494839   245A      2.503697   246A      2.509988  
     247A      2.515181   248A      2.532757   249A      2.539154  
     250A      2.543621   251A      2.576958   252A      2.581841  
     253A      2.611737   254A      2.627954   255A      2.650051  
     256A      2.692164   257A      2.701563   258A      2.716934  
     259A      2.728196   260A      2.739079   261A      2.747032  
     262A      2.762219   263A      2.781313   264A      2.830892  
     265A      2.850897   266A      2.858047   267A      2.869480  
     268A      2.901248   269A      2.912859   270A      2.973552  
     271A      3.018360   272A      3.033904   273A      3.047106  
     274A      3.097902   275A      3.104926   276A      3.127766  
     277A      3.146323   278A      3.192848   279A      3.195517  
     280A      3.217974   281A      3.273041   282A      3.295975  
     283A      3.364790   284A      3.367025   285A      3.449150  
     286A      3.474507   287A      3.491590   288A      3.523409  
     289A      3.589076   290A      3.632600   291A      3.632860  
     292A      3.677766   293A      3.702684   294A      3.779409  
     295A      3.829042   296A      3.845275   297A      3.854070  
     298A      3.882281   299A      3.895280   300A      3.951710  
     301A      4.009005   302A      4.066991   303A      4.075356  
     304A      4.095094   305A      4.123946   306A      4.158826  
     307A      4.173257   308A      4.174983   309A      4.187856  
     310A      4.196036   311A      4.233841   312A      4.262653  
     313A      4.275907   314A      4.336301   315A      4.342055  
     316A      4.358222   317A      4.404668   318A      4.405387  
     319A      4.452192   320A      4.457351   321A      4.458478  
     322A      4.479222   323A      4.512092   324A      4.569296  
     325A      4.576655   326A      4.597735   327A      4.625390  
     328A      4.628668   329A      4.666732   330A      4.681454  
     331A      4.705959   332A      4.710256   333A      4.753132  
     334A      4.785710   335A      4.786651   336A      4.815386  
     337A      4.819449   338A      4.839476   339A      4.871295  
     340A      4.891583   341A      4.896946   342A      4.918541  
     343A      4.920233   344A      4.931595   345A      4.942073  
     346A      4.954775   347A      4.991937   348A      4.994972  
     349A      4.996654   350A      5.018442   351A      5.032340  
     352A      5.044241   353A      5.064673   354A      5.079453  
     355A      5.135304   356A      5.148658   357A      5.162024  
     358A      5.203293   359A      5.219529   360A      5.249374  
     361A      5.258302   362A      5.289836   363A      5.325693  
     364A      5.331115   365A      5.340691   366A      5.355973  
     367A      5.378330   368A      5.410918   369A      5.426817  
     370A      5.463259   371A      5.473446   372A      5.492395  
     373A      5.514188   374A      5.539240   375A      5.543600  
     376A      5.569296   377A      5.581449   378A      5.617052  
     379A      5.637234   380A      5.659696   381A      5.669218  
     382A      5.757900   383A      5.795961   384A      5.796986  
     385A      5.808871   386A      5.838172   387A      5.874894  
     388A      5.915147   389A      5.918604   390A      5.973131  
     391A      6.007591   392A      6.017656   393A      6.076361  
     394A      6.110263   395A      6.127140   396A      6.129081  
     397A      6.160340   398A      6.180042   399A      6.214966  
     400A      6.228559   401A      6.247938   402A      6.295216  
     403A      6.310276   404A      6.325643   405A      6.353379  
     406A      6.467924   407A      6.484259   408A      6.494232  
     409A      6.558267   410A      6.596888   411A      6.617467  
     412A      6.629257   413A      6.653946   414A      6.676704  
     415A      6.716594   416A      6.771252   417A      6.780002  
     418A      6.803798   419A      6.909023   420A      6.960211  
     421A      6.969313   422A      7.055690   423A      7.101847  
     424A      7.146618   425A      7.319844   426A      7.435835  
     427A      7.485933   428A      7.546763   429A      7.594952  
     430A      7.608495   431A      7.686345   432A      7.704550  
     433A      7.717431   434A      7.766717   435A      7.801621  
     436A      7.814581   437A      7.899632   438A      8.088835  
     439A      8.343671   440A      8.445064   441A      8.553168  
     442A      8.650901   443A      9.070835   444A      9.363031  
     445A      9.464073   446A      9.523493   447A      9.620659  
     448A     10.241816   449A     10.824468   450A     11.296130  
     451A     11.687437   452A     11.828324   453A     12.225797  
     454A     12.987645   455A     17.278344   456A     17.889833  
     457A     19.250974   458A     52.313261   459A     59.648957  
     460A     63.018718  

    Final Occupation by Irrep:
              A 
    DOCC [    12 ]

  @DF-RHF Final Energy:  -149.14315151681484

   => Energetics <=

    Nuclear Repulsion Energy =             72.1807086195704386
    One-Electron Energy =                -344.7429745083636590
    Two-Electron Energy =                 123.4191143719783668
    Total Energy =                       -149.1431515168148394

Computation Completed


Properties will be evaluated at   0.000000,   0.000000,   0.000000 [a0]

Properties computed using the SCF density matrix

  Nuclear Dipole Moment: [e a0]
     X:   -71.2485      Y:     3.5753      Z:    -0.0000

  Electronic Dipole Moment: [e a0]
     X:    70.4263      Y:    -4.5675      Z:     0.0000

  Dipole Moment: [e a0]
     X:    -0.8222      Y:    -0.9922      Z:     0.0000     Total:     1.2886

  Dipole Moment: [D]
     X:    -2.0899      Y:    -2.5220      Z:     0.0000     Total:     3.2754


*** tstop() called on node54.bme.utexas.edu at Mon Sep  9 21:49:27 2019
Module time:
	user time   =      48.51 seconds =       0.81 minutes
	system time =       0.82 seconds =       0.01 minutes
	total time  =         13 seconds =       0.22 minutes
Total time:
	user time   =     180.65 seconds =       3.01 minutes
	system time =       3.23 seconds =       0.05 minutes
	total time  =         49 seconds =       0.82 minutes
  Constructing Basis Sets for SAPT...

   => Loading Basis Set <=

    Name: (AUG-CC-PVTZ AUX)
    Role: RIFIT
    Keyword: DF_BASIS_SAPT
    atoms 1, 8                    entry C          line   148 file /home/xy3866/psi4conda/share/psi4/basis/aug-cc-pvtz-ri.gbs 
    atoms 2, 4, 6-7, 9, 11, 13-14 entry H          line    30 file /home/xy3866/psi4conda/share/psi4/basis/aug-cc-pvtz-ri.gbs 
    atoms 3, 5, 10, 12            entry N          line   206 file /home/xy3866/psi4conda/share/psi4/basis/aug-cc-pvtz-ri.gbs 


  //>>>>>>>>>>>>>>>>>>>>>>>>>>>>>>>>>>>//
  //               SAPT2+              //
  //<<<<<<<<<<<<<<<<<<<<<<<<<<<<<<<<<<<//


*** tstart() called on node54.bme.utexas.edu
*** at Mon Sep  9 21:49:28 2019

        SAPT2+  
    Ed Hohenstein
     6 June 2009

      Orbital Information
  --------------------------
    NSO        =       460
    NMO        =       460
    NRI        =      1004
    NOCC A     =        12
    NOCC B     =        12
    FOCC A     =         3
    FOCC B     =         3
    NVIR A     =       448
    NVIR B     =       448

    Estimated memory usage: 2305.7 MB

    Natural Orbital Cutoff:   1.000E-06
    Disp(T3) Truncation:            Yes
    CCD (vv|vv) Truncation:         Yes
    MBPT T2 Truncation:             Yes

    Monomer A: 244 virtual orbitals dropped
    Monomer B: 244 virtual orbitals dropped

    Elst10,r            =    -0.073306807320 [Eh]
    Exch10 (S^2)        =     0.103628019425 [Eh]
    Exch10              =     0.107318278029 [Eh]
    Ind20,r (A<-B)      =    -0.025806107264 [Eh]
    Ind20,r (B<-A)      =    -0.025806107265 [Eh]
    Ind20,r             =    -0.051612214529 [Eh]
    Exch-Ind20,r (A<-B) =     0.015017320074 [Eh]
    Exch-Ind20,r (B<-A) =     0.015017320075 [Eh]
    Exch-Ind20,r        =     0.030034640148 [Eh]
    Disp20              =    -0.028686145174 [Eh]
    Disp20 (NO)         =    -0.025344951289 [Eh]
    Exch-Disp20         =     0.006520864848 [Eh]
    Elst12,r            =    -0.000277325711 [Eh]
    Exch11              =     0.001578582068 [Eh]
    Exch12              =     0.005336386124 [Eh]
    Ind22               =    -0.004926181700 [Eh]
    Disp21              =     0.002578049283 [Eh]
    Disp22 (SDQ)        =     0.000421941125 [Eh]

    (i =   1 of   9)         35 seconds
    (i =   2 of   9)         69 seconds
    (i =   3 of   9)        103 seconds
    (i =   4 of   9)        137 seconds
    (i =   5 of   9)        172 seconds
    (i =   6 of   9)        206 seconds
    (i =   7 of   9)        240 seconds
    (i =   8 of   9)        274 seconds
    (i =   9 of   9)        308 seconds

    Disp220 (T)         =    -0.002086605247 [Eh]

    (i =   1 of   9)         35 seconds
    (i =   2 of   9)         70 seconds
    (i =   3 of   9)        104 seconds
    (i =   4 of   9)        139 seconds
    (i =   5 of   9)        174 seconds
    (i =   6 of   9)        208 seconds
    (i =   7 of   9)        243 seconds
    (i =   8 of   9)        277 seconds
    (i =   9 of   9)        312 seconds

    Disp202 (T)         =    -0.002086605247 [Eh]

    Disp22 (T)          =    -0.004173210494 [Eh]

    Est. Disp220 (T)    =    -0.002361679861 [Eh]
    Est. Disp202 (T)    =    -0.002361679861 [Eh]

    Est. Disp22 (T)     =    -0.004723359722 [Eh]

    SAPT Results 
  --------------------------------------------------------------------------------------------------------
    Electrostatics                -73.58413303 [mEh]     -46.17474060 [kcal/mol]    -193.19511466 [kJ/mol]
      Elst10,r                    -73.30680732 [mEh]     -46.00071609 [kcal/mol]    -192.46699610 [kJ/mol]
      Elst12,r                     -0.27732571 [mEh]      -0.17402451 [kcal/mol]      -0.72811855 [kJ/mol]

    Exchange                      114.23324622 [mEh]      71.68244422 [kcal/mol]     299.91934663 [kJ/mol]
      Exch10                      107.31827803 [mEh]      67.34323617 [kcal/mol]     281.76410015 [kJ/mol]
      Exch10(S^2)                 103.62801943 [mEh]      65.02756394 [kcal/mol]     272.07532752 [kJ/mol]
      Exch11(S^2)                   1.57858207 [mEh]       0.99057520 [kcal/mol]       4.14456665 [kJ/mol]
      Exch12(S^2)                   5.33638612 [mEh]       3.34863285 [kcal/mol]      14.01067984 [kJ/mol]

    Induction                     -41.36756088 [mEh]     -25.95853636 [kcal/mol]    -108.61051612 [kJ/mol]
      Ind20,r                     -51.61221453 [mEh]     -32.38715358 [kcal/mol]    -135.50785058 [kJ/mol]
      Ind22                        -4.92618170 [mEh]      -3.09122569 [kcal/mol]     -12.93368827 [kJ/mol]
      Exch-Ind20,r                 30.03464015 [mEh]      18.84702123 [kcal/mol]      78.85593685 [kJ/mol]
      Exch-Ind22                    2.86668759 [mEh]       1.79887362 [kcal/mol]       7.52648722 [kJ/mol]
      delta HF,r (2)              -17.73049238 [mEh]     -11.12605194 [kcal/mol]     -46.55140134 [kJ/mol]

    Dispersion                    -23.88864964 [mEh]     -14.99035396 [kcal/mol]     -62.71964099 [kJ/mol]
      Disp20                      -28.68614517 [mEh]     -18.00082786 [kcal/mol]     -75.31546378 [kJ/mol]
      Disp21                        2.57804928 [mEh]       1.61775035 [kcal/mol]       6.76866746 [kJ/mol]
      Disp22 (SDQ)                  0.42194113 [mEh]       0.26477205 [kcal/mol]       1.10780627 [kJ/mol]
      Disp22 (T)                   -4.17321049 [mEh]      -2.61872912 [kcal/mol]     -10.95676264 [kJ/mol]
      Est. Disp22 (T)              -4.72335972 [mEh]      -2.96395297 [kcal/mol]     -12.40117924 [kJ/mol]
      Exch-Disp20                   6.52086485 [mEh]       4.09190447 [kcal/mol]      17.12052830 [kJ/mol]

  Total HF                         -5.29659605 [mEh]      -3.32366420 [kcal/mol]     -13.90621102 [kJ/mol]
  Total SAPT0                     -27.46187638 [mEh]     -17.23258760 [kcal/mol]     -72.10114650 [kJ/mol]
  Total SAPT2                     -22.88372801 [mEh]     -14.35975612 [kcal/mol]     -60.08121962 [kJ/mol]
  Total SAPT2+                    -24.60709733 [mEh]     -15.44118669 [kcal/mol]     -64.60592513 [kJ/mol]

  Special recipe for scaled SAPT0 (see Manual):
    Electrostatics sSAPT0         -73.30680732 [mEh]     -46.00071609 [kcal/mol]    -192.46699610 [kJ/mol]
    Exchange sSAPT0               107.31827803 [mEh]      67.34323617 [kcal/mol]     281.76410015 [kJ/mol]
    Induction sSAPT0              -35.98379119 [mEh]     -22.58016987 [kcal/mol]     -94.47543074 [kJ/mol]
    Dispersion sSAPT0             -21.44354197 [mEh]     -13.45602574 [kcal/mol]     -56.30001169 [kJ/mol]
  Total sSAPT0                    -23.41586245 [mEh]     -14.69367552 [kcal/mol]     -61.47833838 [kJ/mol]
  --------------------------------------------------------------------------------------------------------

*** tstop() called on node54.bme.utexas.edu at Mon Sep  9 22:05:09 2019
Module time:
	user time   =    3446.60 seconds =      57.44 minutes
	system time =      64.35 seconds =       1.07 minutes
	total time  =        941 seconds =      15.68 minutes
Total time:
	user time   =    3627.54 seconds =      60.46 minutes
	system time =      67.59 seconds =       1.13 minutes
	total time  =        991 seconds =      16.52 minutes

    Psi4 stopped on: Monday, 09 September 2019 10:05PM
    Psi4 wall time for execution: 0:16:31.40

*** Psi4 exiting successfully. Buy a developer a beer!
