
    -----------------------------------------------------------------------
          Psi4: An Open-Source Ab Initio Electronic Structure Package
                               Psi4 1.3.2 release

                         Git: Rev {HEAD} ecbda83 


    R. M. Parrish, L. A. Burns, D. G. A. Smith, A. C. Simmonett,
    A. E. DePrince III, E. G. Hohenstein, U. Bozkaya, A. Yu. Sokolov,
    R. Di Remigio, R. M. Richard, J. F. Gonthier, A. M. James,
    H. R. McAlexander, A. Kumar, M. Saitow, X. Wang, B. P. Pritchard,
    P. Verma, H. F. Schaefer III, K. Patkowski, R. A. King, E. F. Valeev,
    F. A. Evangelista, J. M. Turney, T. D. Crawford, and C. D. Sherrill,
    J. Chem. Theory Comput. 13(7) pp 3185--3197 (2017).
    (doi: 10.1021/acs.jctc.7b00174)


                         Additional Contributions by
    P. Kraus, H. Kruse, M. H. Lechner, M. C. Schieber, R. A. Shaw,
    A. Alenaizan, R. Galvelis, Z. L. Glick, S. Lehtola, and J. P. Misiewicz

    -----------------------------------------------------------------------


    Psi4 started on: Monday, 09 September 2019 07:58PM

    Process ID: 59036
    Host:       node54.bme.utexas.edu
    PSIDATADIR: /home/xy3866/psi4conda/share/psi4
    Memory:     500.0 MiB
    Threads:    4
    
  ==> Input File <==

--------------------------------------------------------------------------
#psi4
#
memory 32 gb

molecule  {
0 1
  C       -1.9644470     0.1609890    -0.0000020
  H       -3.0589320     0.1627090    -0.0000040
  O       -1.3160380     1.1929960    -0.0000020
  O       -1.4968300    -1.0660630     0.0000020
  H       -0.4778920    -1.0649310     0.0000090
--
0 1
  C        1.4440165    -0.1615764    -0.0000031
  H        2.5258325    -0.2838014    -0.0000051
  N        0.6262255    -1.1589434    -0.0000011
  H        1.1368205    -2.0324484    -0.0000011
  N        1.0291665     1.1152476     0.0000019
  H        0.0331495     1.3137806     0.0000009
  H        1.6960865     1.8599236     0.0000039
units angstrom
no_reorient  #important for SAPT in psi4, default
symmetry c1  #important for SAPT in psi4, default
}

set {
basis aug-cc-pVTZ
scf_type DF
freeze_core True
}
energy('sapt2+')
--------------------------------------------------------------------------

  Memory set to  29.802 GiB by Python driver.

  //>>>>>>>>>>>>>>>>>>>>>>>>>>>>>>>>>>>//
  //              Dimer HF             //
  //<<<<<<<<<<<<<<<<<<<<<<<<<<<<<<<<<<<//


*** tstart() called on node54.bme.utexas.edu
*** at Mon Sep  9 19:58:49 2019

   => Loading Basis Set <=

    Name: AUG-CC-PVTZ
    Role: ORBITAL
    Keyword: BASIS
    atoms 1, 6              entry C          line   235 file /home/xy3866/psi4conda/share/psi4/basis/aug-cc-pvtz.gbs 
    atoms 2, 5, 7, 9, 11-12 entry H          line    36 file /home/xy3866/psi4conda/share/psi4/basis/aug-cc-pvtz.gbs 
    atoms 3-4               entry O          line   327 file /home/xy3866/psi4conda/share/psi4/basis/aug-cc-pvtz.gbs 
    atoms 8, 10             entry N          line   281 file /home/xy3866/psi4conda/share/psi4/basis/aug-cc-pvtz.gbs 


         ---------------------------------------------------------
                                   SCF
               by Justin Turney, Rob Parrish, Andy Simmonett
                          and Daniel G. A. Smith
                              RHF Reference
                        4 Threads,  30517 MiB Core
         ---------------------------------------------------------

  ==> Geometry <==

    Molecular point group: c1
    Full point group: C1

    Geometry (in Angstrom), charge = 0, multiplicity = 1:

       Center              X                  Y                   Z               Mass       
    ------------   -----------------  -----------------  -----------------  -----------------
         C           -1.673623582609     0.145815789763    -0.000001485030    12.000000000000
         H           -2.768108582609     0.147535789763    -0.000003485030     1.007825032230
         O           -1.025214582609     1.177822789763    -0.000001485030    15.994914619570
         O           -1.206006582609    -1.081236210237     0.000002514970    15.994914619570
         H           -0.187068582609    -1.080104210237     0.000009514970     1.007825032230
         C            1.734839917391    -0.176749610237    -0.000002585030    12.000000000000
         H            2.816655917391    -0.298974610237    -0.000004585030     1.007825032230
         N            0.917048917391    -1.174116610237    -0.000000585030    14.003074004430
         H            1.427643917391    -2.047621610237    -0.000000585030     1.007825032230
         N            1.319989917391     1.100074389763     0.000002414970    14.003074004430
         H            0.323972917391     1.298607389763     0.000001414970     1.007825032230
         H            1.986909917391     1.844750389763     0.000004414970     1.007825032230

  Running in c1 symmetry.

  Rotational constants: A =      0.19068  B =      0.10042  C =      0.06578 [cm^-1]
  Rotational constants: A =   5716.31952  B =   3010.50775  C =   1971.96801 [MHz]
  Nuclear repulsion =  249.639673410275748

  Charge       = 0
  Multiplicity = 1
  Electrons    = 48
  Nalpha       = 24
  Nbeta        = 24

  ==> Algorithm <==

  SCF Algorithm Type is DF.
  DIIS enabled.
  MOM disabled.
  Fractional occupation disabled.
  Guess Type is SAD.
  Energy threshold   = 1.00e-08
  Density threshold  = 1.00e-08
  Integral threshold = 0.00e+00

  ==> Primary Basis <==

  Basis Set: AUG-CC-PVTZ
    Blend: AUG-CC-PVTZ
    Number of shells: 138
    Number of basis function: 414
    Number of Cartesian functions: 480
    Spherical Harmonics?: true
    Max angular momentum: 3

   => Loading Basis Set <=

    Name: (AUG-CC-PVTZ AUX)
    Role: JKFIT
    Keyword: DF_BASIS_SCF
    atoms 1, 6              entry C          line   162 file /home/xy3866/psi4conda/share/psi4/basis/aug-cc-pvtz-jkfit.gbs 
    atoms 2, 5, 7, 9, 11-12 entry H          line    70 file /home/xy3866/psi4conda/share/psi4/basis/aug-cc-pvtz-jkfit.gbs 
    atoms 3-4               entry O          line   286 file /home/xy3866/psi4conda/share/psi4/basis/aug-cc-pvtz-jkfit.gbs 
    atoms 8, 10             entry N          line   224 file /home/xy3866/psi4conda/share/psi4/basis/aug-cc-pvtz-jkfit.gbs 

  ==> Pre-Iterations <==

   -------------------------------------------------------
    Irrep   Nso     Nmo     Nalpha   Nbeta   Ndocc  Nsocc
   -------------------------------------------------------
     A        414     414       0       0       0       0
   -------------------------------------------------------
    Total     414     414      24      24      24       0
   -------------------------------------------------------

  ==> Integral Setup <==

  ==> DiskDFJK: Density-Fitted J/K Matrices <==

    J tasked:                  Yes
    K tasked:                  Yes
    wK tasked:                  No
    OpenMP threads:              4
    Integrals threads:           4
    Memory [MiB]:            22888
    Algorithm:                Core
    Integral Cache:           SAVE
    Schwarz Cutoff:          1E-12
    Fitting Condition:       1E-10

   => Auxiliary Basis Set <=

  Basis Set: (AUG-CC-PVTZ AUX)
    Blend: AUG-CC-PVTZ-JKFIT
    Number of shells: 264
    Number of basis function: 900
    Number of Cartesian functions: 1116
    Spherical Harmonics?: true
    Max angular momentum: 4

  Minimum eigenvalue in the overlap matrix is 1.6939131728E-05.
  Using Symmetric Orthogonalization.

  SCF Guess: Superposition of Atomic Densities via on-the-fly atomic UHF.

  ==> Iterations <==

                           Total Energy        Delta E     RMS |[F,P]|

   @DF-RHF iter SAD:  -337.28071902586680   -3.37281e+02   0.00000e+00 
   @DF-RHF iter   1:  -337.70971578672658   -4.28997e-01   1.80308e-03 DIIS
   @DF-RHF iter   2:  -337.86735347539997   -1.57638e-01   1.07861e-03 DIIS
   @DF-RHF iter   3:  -337.93595882576051   -6.86054e-02   1.34810e-04 DIIS
   @DF-RHF iter   4:  -337.93794070221662   -1.98188e-03   4.50971e-05 DIIS
   @DF-RHF iter   5:  -337.93814892519299   -2.08223e-04   1.20376e-05 DIIS
   @DF-RHF iter   6:  -337.93817350012534   -2.45749e-05   4.69399e-06 DIIS
   @DF-RHF iter   7:  -337.93817796111637   -4.46099e-06   1.76138e-06 DIIS
   @DF-RHF iter   8:  -337.93817882133317   -8.60217e-07   7.42698e-07 DIIS
   @DF-RHF iter   9:  -337.93817896307246   -1.41739e-07   3.17606e-07 DIIS
   @DF-RHF iter  10:  -337.93817898388107   -2.08086e-08   1.05184e-07 DIIS
   @DF-RHF iter  11:  -337.93817898609223   -2.21115e-09   3.95861e-08 DIIS
   @DF-RHF iter  12:  -337.93817898645540   -3.63173e-10   1.14107e-08 DIIS
   @DF-RHF iter  13:  -337.93817898647688   -2.14868e-11   4.71099e-09 DIIS
  Energy and wave function converged.


  ==> Post-Iterations <==

    Orbital Energies [Eh]
    ---------------------

    Doubly Occupied:                                                      

       1A    -20.535069     2A    -20.522399     3A    -15.558157  
       4A    -15.540422     5A    -11.366292     6A    -11.345505  
       7A     -1.435599     8A     -1.342796     9A     -1.280580  
      10A     -1.168350    11A     -0.909906    12A     -0.818186  
      13A     -0.787855    14A     -0.754779    15A     -0.683754  
      16A     -0.648317    17A     -0.606534    18A     -0.596702  
      19A     -0.584369    20A     -0.542366    21A     -0.457125  
      22A     -0.456926    23A     -0.407438    24A     -0.380424  

    Virtual:                                                              

      25A      0.021575    26A      0.035819    27A      0.040943  
      28A      0.052360    29A      0.067887    30A      0.071379  
      31A      0.071483    32A      0.091233    33A      0.113544  
      34A      0.116336    35A      0.120754    36A      0.121656  
      37A      0.134888    38A      0.139538    39A      0.145753  
      40A      0.152776    41A      0.157059    42A      0.161213  
      43A      0.186587    44A      0.192552    45A      0.193837  
      46A      0.195338    47A      0.207585    48A      0.224324  
      49A      0.233626    50A      0.254870    51A      0.265684  
      52A      0.271892    53A      0.273552    54A      0.278360  
      55A      0.284717    56A      0.298259    57A      0.313792  
      58A      0.316813    59A      0.322140    60A      0.328576  
      61A      0.333723    62A      0.336815    63A      0.337907  
      64A      0.343339    65A      0.366467    66A      0.369363  
      67A      0.381087    68A      0.385113    69A      0.395702  
      70A      0.414932    71A      0.428041    72A      0.429492  
      73A      0.443223    74A      0.443317    75A      0.458028  
      76A      0.466643    77A      0.481084    78A      0.487689  
      79A      0.496754    80A      0.499207    81A      0.504494  
      82A      0.524143    83A      0.537996    84A      0.555851  
      85A      0.560271    86A      0.561820    87A      0.583268  
      88A      0.587600    89A      0.598856    90A      0.599390  
      91A      0.623141    92A      0.640563    93A      0.653587  
      94A      0.656762    95A      0.659943    96A      0.676891  
      97A      0.684981    98A      0.693621    99A      0.701333  
     100A      0.706547   101A      0.717353   102A      0.745485  
     103A      0.752393   104A      0.775485   105A      0.782970  
     106A      0.790510   107A      0.811504   108A      0.822580  
     109A      0.828773   110A      0.836451   111A      0.838283  
     112A      0.856625   113A      0.868657   114A      0.871803  
     115A      0.889859   116A      0.892535   117A      0.896390  
     118A      0.924545   119A      0.931635   120A      0.935035  
     121A      0.941229   122A      0.970787   123A      0.973369  
     124A      0.983346   125A      0.988135   126A      0.991271  
     127A      0.993091   128A      1.014902   129A      1.026869  
     130A      1.027386   131A      1.032185   132A      1.053472  
     133A      1.058913   134A      1.061842   135A      1.074039  
     136A      1.097109   137A      1.098188   138A      1.111799  
     139A      1.116728   140A      1.118222   141A      1.127973  
     142A      1.146836   143A      1.185706   144A      1.189244  
     145A      1.191870   146A      1.200871   147A      1.203757  
     148A      1.220859   149A      1.243693   150A      1.247081  
     151A      1.263658   152A      1.264205   153A      1.266784  
     154A      1.281342   155A      1.315250   156A      1.319868  
     157A      1.354531   158A      1.355118   159A      1.366035  
     160A      1.381301   161A      1.382169   162A      1.393713  
     163A      1.399140   164A      1.421215   165A      1.443655  
     166A      1.454405   167A      1.461947   168A      1.474285  
     169A      1.482480   170A      1.501268   171A      1.508835  
     172A      1.551928   173A      1.557888   174A      1.566969  
     175A      1.579678   176A      1.585136   177A      1.594281  
     178A      1.597585   179A      1.621989   180A      1.642386  
     181A      1.655096   182A      1.666433   183A      1.687873  
     184A      1.705263   185A      1.706897   186A      1.723134  
     187A      1.742624   188A      1.779639   189A      1.779822  
     190A      1.794647   191A      1.795377   192A      1.859095  
     193A      1.872322   194A      1.879371   195A      1.895857  
     196A      1.918636   197A      1.946625   198A      1.975803  
     199A      1.997826   200A      2.013821   201A      2.063265  
     202A      2.064953   203A      2.076118   204A      2.086623  
     205A      2.106474   206A      2.145840   207A      2.165842  
     208A      2.172352   209A      2.177212   210A      2.213789  
     211A      2.246298   212A      2.275126   213A      2.304760  
     214A      2.308082   215A      2.334341   216A      2.370787  
     217A      2.375142   218A      2.384398   219A      2.404454  
     220A      2.450616   221A      2.456772   222A      2.457754  
     223A      2.488560   224A      2.495280   225A      2.507744  
     226A      2.517142   227A      2.548863   228A      2.564880  
     229A      2.565631   230A      2.576428   231A      2.593712  
     232A      2.607560   233A      2.610324   234A      2.619135  
     235A      2.670977   236A      2.674767   237A      2.704462  
     238A      2.725851   239A      2.742030   240A      2.748395  
     241A      2.766876   242A      2.771917   243A      2.822881  
     244A      2.860158   245A      2.874698   246A      2.909671  
     247A      2.912409   248A      2.920254   249A      2.953134  
     250A      2.975970   251A      3.019391   252A      3.084559  
     253A      3.086621   254A      3.104013   255A      3.122181  
     256A      3.154540   257A      3.206812   258A      3.214784  
     259A      3.234580   260A      3.257353   261A      3.290465  
     262A      3.340186   263A      3.431198   264A      3.444636  
     265A      3.452489   266A      3.473632   267A      3.489955  
     268A      3.493797   269A      3.552973   270A      3.616764  
     271A      3.623657   272A      3.671539   273A      3.681487  
     274A      3.699677   275A      3.749089   276A      3.790756  
     277A      3.838676   278A      3.858532   279A      3.871476  
     280A      3.886645   281A      3.920559   282A      3.926594  
     283A      3.979934   284A      3.998717   285A      4.071663  
     286A      4.094307   287A      4.112431   288A      4.140045  
     289A      4.155705   290A      4.186742   291A      4.198576  
     292A      4.240811   293A      4.243668   294A      4.249211  
     295A      4.258967   296A      4.299996   297A      4.325118  
     298A      4.328751   299A      4.345452   300A      4.362453  
     301A      4.394540   302A      4.399134   303A      4.411920  
     304A      4.461254   305A      4.471654   306A      4.490169  
     307A      4.522751   308A      4.540773   309A      4.579856  
     310A      4.602935   311A      4.607430   312A      4.645029  
     313A      4.681296   314A      4.693961   315A      4.706431  
     316A      4.762057   317A      4.797782   318A      4.806875  
     319A      4.877493   320A      4.892868   321A      4.893129  
     322A      4.912576   323A      4.923625   324A      4.942408  
     325A      4.948831   326A      4.977850   327A      5.050306  
     328A      5.072108   329A      5.088817   330A      5.123620  
     331A      5.131950   332A      5.176931   333A      5.199038  
     334A      5.217484   335A      5.228686   336A      5.251161  
     337A      5.252821   338A      5.290460   339A      5.292020  
     340A      5.352433   341A      5.395302   342A      5.421197  
     343A      5.454282   344A      5.470640   345A      5.520764  
     346A      5.566051   347A      5.579170   348A      5.594208  
     349A      5.643846   350A      5.644757   351A      5.708090  
     352A      5.747833   353A      5.786674   354A      5.819828  
     355A      5.831073   356A      5.834159   357A      5.914779  
     358A      5.918250   359A      6.006900   360A      6.041017  
     361A      6.074019   362A      6.146857   363A      6.150322  
     364A      6.201678   365A      6.226878   366A      6.325246  
     367A      6.361072   368A      6.381992   369A      6.419598  
     370A      6.451195   371A      6.460886   372A      6.498068  
     373A      6.599171   374A      6.708210   375A      6.813372  
     376A      6.838117   377A      6.901482   378A      6.920156  
     379A      6.923165   380A      6.981867   381A      7.027619  
     382A      7.053489   383A      7.069379   384A      7.100481  
     385A      7.150951   386A      7.239876   387A      7.254842  
     388A      7.364435   389A      7.412475   390A      7.477667  
     391A      7.489638   392A      7.551979   393A      7.585922  
     394A      7.607598   395A      7.709202   396A      7.719059  
     397A      7.725218   398A      7.825017   399A      7.827073  
     400A      7.857887   401A      7.946228   402A      8.096806  
     403A      8.323138   404A      8.364460   405A      8.527594  
     406A      8.715949   407A      8.865426   408A      9.158149  
     409A     15.812518   410A     16.628046   411A     18.179546  
     412A     18.904278   413A     19.368350   414A     19.873562  

    Final Occupation by Irrep:
              A 
    DOCC [    24 ]

  @DF-RHF Final Energy:  -337.93817898647688

   => Energetics <=

    Nuclear Repulsion Energy =            249.6396734102757478
    One-Electron Energy =                -957.6960084949455450
    Two-Electron Energy =                 370.1181560981929692
    Total Energy =                       -337.9381789864768848

Computation Completed


Properties will be evaluated at   0.000000,   0.000000,   0.000000 [a0]

Properties computed using the SCF density matrix

  Nuclear Dipole Moment: [e a0]
     X:     3.3577      Y:    -0.1266      Z:     0.0000

  Electronic Dipole Moment: [e a0]
     X:    -1.9728      Y:     0.1649      Z:    -0.0000

  Dipole Moment: [e a0]
     X:     1.3849      Y:     0.0382      Z:     0.0000     Total:     1.3854

  Dipole Moment: [D]
     X:     3.5200      Y:     0.0972      Z:     0.0000     Total:     3.5213


*** tstop() called on node54.bme.utexas.edu at Mon Sep  9 19:59:07 2019
Module time:
	user time   =      65.31 seconds =       1.09 minutes
	system time =       1.32 seconds =       0.02 minutes
	total time  =         18 seconds =       0.30 minutes
Total time:
	user time   =      65.31 seconds =       1.09 minutes
	system time =       1.32 seconds =       0.02 minutes
	total time  =         18 seconds =       0.30 minutes

  //>>>>>>>>>>>>>>>>>>>>>>>>>>>>>>>>>>>//
  //            Monomer A HF           //
  //<<<<<<<<<<<<<<<<<<<<<<<<<<<<<<<<<<<//


*** tstart() called on node54.bme.utexas.edu
*** at Mon Sep  9 19:59:07 2019

   => Loading Basis Set <=

    Name: AUG-CC-PVTZ
    Role: ORBITAL
    Keyword: BASIS
    atoms 1, 6              entry C          line   235 file /home/xy3866/psi4conda/share/psi4/basis/aug-cc-pvtz.gbs 
    atoms 2, 5, 7, 9, 11-12 entry H          line    36 file /home/xy3866/psi4conda/share/psi4/basis/aug-cc-pvtz.gbs 
    atoms 3-4               entry O          line   327 file /home/xy3866/psi4conda/share/psi4/basis/aug-cc-pvtz.gbs 
    atoms 8, 10             entry N          line   281 file /home/xy3866/psi4conda/share/psi4/basis/aug-cc-pvtz.gbs 


         ---------------------------------------------------------
                                   SCF
               by Justin Turney, Rob Parrish, Andy Simmonett
                          and Daniel G. A. Smith
                              RHF Reference
                        4 Threads,  30517 MiB Core
         ---------------------------------------------------------

  ==> Geometry <==

    Molecular point group: c1
    Full point group: C1

    Geometry (in Angstrom), charge = 0, multiplicity = 1:

       Center              X                  Y                   Z               Mass       
    ------------   -----------------  -----------------  -----------------  -----------------
         C           -1.673623582609     0.145815789763    -0.000001485030    12.000000000000
         H           -2.768108582609     0.147535789763    -0.000003485030     1.007825032230
         O           -1.025214582609     1.177822789763    -0.000001485030    15.994914619570
         O           -1.206006582609    -1.081236210237     0.000002514970    15.994914619570
         H           -0.187068582609    -1.080104210237     0.000009514970     1.007825032230
      Gh(C)           1.734839917391    -0.176749610237    -0.000002585030    12.000000000000
      Gh(H)           2.816655917391    -0.298974610237    -0.000004585030     1.007825032230
      Gh(N)           0.917048917391    -1.174116610237    -0.000000585030    14.003074004430
      Gh(H)           1.427643917391    -2.047621610237    -0.000000585030     1.007825032230
      Gh(N)           1.319989917391     1.100074389763     0.000002414970    14.003074004430
      Gh(H)           0.323972917391     1.298607389763     0.000001414970     1.007825032230
      Gh(H)           1.986909917391     1.844750389763     0.000004414970     1.007825032230

  Running in c1 symmetry.

  Rotational constants: A =      0.19068  B =      0.10042  C =      0.06578 [cm^-1]
  Rotational constants: A =   5716.31952  B =   3010.50775  C =   1971.96801 [MHz]
  Nuclear repulsion =   69.995387312911120

  Charge       = 0
  Multiplicity = 1
  Electrons    = 24
  Nalpha       = 12
  Nbeta        = 12

  ==> Algorithm <==

  SCF Algorithm Type is DF.
  DIIS enabled.
  MOM disabled.
  Fractional occupation disabled.
  Guess Type is SAD.
  Energy threshold   = 1.00e-08
  Density threshold  = 1.00e-08
  Integral threshold = 0.00e+00

  ==> Primary Basis <==

  Basis Set: AUG-CC-PVTZ
    Blend: AUG-CC-PVTZ
    Number of shells: 138
    Number of basis function: 414
    Number of Cartesian functions: 480
    Spherical Harmonics?: true
    Max angular momentum: 3

   => Loading Basis Set <=

    Name: (AUG-CC-PVTZ AUX)
    Role: JKFIT
    Keyword: DF_BASIS_SCF
    atoms 1, 6              entry C          line   162 file /home/xy3866/psi4conda/share/psi4/basis/aug-cc-pvtz-jkfit.gbs 
    atoms 2, 5, 7, 9, 11-12 entry H          line    70 file /home/xy3866/psi4conda/share/psi4/basis/aug-cc-pvtz-jkfit.gbs 
    atoms 3-4               entry O          line   286 file /home/xy3866/psi4conda/share/psi4/basis/aug-cc-pvtz-jkfit.gbs 
    atoms 8, 10             entry N          line   224 file /home/xy3866/psi4conda/share/psi4/basis/aug-cc-pvtz-jkfit.gbs 

  ==> Pre-Iterations <==

   -------------------------------------------------------
    Irrep   Nso     Nmo     Nalpha   Nbeta   Ndocc  Nsocc
   -------------------------------------------------------
     A        414     414       0       0       0       0
   -------------------------------------------------------
    Total     414     414      12      12      12       0
   -------------------------------------------------------

  ==> Integral Setup <==

  ==> DiskDFJK: Density-Fitted J/K Matrices <==

    J tasked:                  Yes
    K tasked:                  Yes
    wK tasked:                  No
    OpenMP threads:              4
    Integrals threads:           4
    Memory [MiB]:            22888
    Algorithm:                Core
    Integral Cache:           LOAD
    Schwarz Cutoff:          1E-12
    Fitting Condition:       1E-10

   => Auxiliary Basis Set <=

  Basis Set: (AUG-CC-PVTZ AUX)
    Blend: AUG-CC-PVTZ-JKFIT
    Number of shells: 264
    Number of basis function: 900
    Number of Cartesian functions: 1116
    Spherical Harmonics?: true
    Max angular momentum: 4

  Minimum eigenvalue in the overlap matrix is 1.6939131728E-05.
  Using Symmetric Orthogonalization.

  SCF Guess: Superposition of Atomic Densities via on-the-fly atomic UHF.

  ==> Iterations <==

                           Total Energy        Delta E     RMS |[F,P]|

   @DF-RHF iter SAD:  -187.97904379779280   -1.87979e+02   0.00000e+00 
   @DF-RHF iter   1:  -188.73128324720818   -7.52239e-01   1.26157e-03 DIIS
   @DF-RHF iter   2:  -188.79397702240871   -6.26938e-02   8.97752e-04 DIIS
   @DF-RHF iter   3:  -188.83736395965411   -4.33869e-02   1.07175e-04 DIIS
   @DF-RHF iter   4:  -188.83851127141963   -1.14731e-03   5.67350e-05 DIIS
   @DF-RHF iter   5:  -188.83880125958271   -2.89988e-04   1.37222e-05 DIIS
   @DF-RHF iter   6:  -188.83884349954337   -4.22400e-05   5.91329e-06 DIIS
   @DF-RHF iter   7:  -188.83885288706230   -9.38752e-06   2.13538e-06 DIIS
   @DF-RHF iter   8:  -188.83885399324356   -1.10618e-06   6.71486e-07 DIIS
   @DF-RHF iter   9:  -188.83885410465132   -1.11408e-07   1.93712e-07 DIIS
   @DF-RHF iter  10:  -188.83885411367623   -9.02492e-09   4.31902e-08 DIIS
   @DF-RHF iter  11:  -188.83885411406430   -3.88070e-10   7.45721e-09 DIIS
  Energy and wave function converged.


  ==> Post-Iterations <==

    Orbital Energies [Eh]
    ---------------------

    Doubly Occupied:                                                      

       1A    -20.639623     2A    -20.560444     3A    -11.395786  
       4A     -1.478580     5A     -1.367874     6A     -0.898040  
       7A     -0.730440     8A     -0.708484     9A     -0.643536  
      10A     -0.593078    11A     -0.490039    12A     -0.469559  

    Virtual:                                                              

      13A      0.020274    14A      0.033289    15A      0.039708  
      16A      0.052650    17A      0.064799    18A      0.067858  
      19A      0.071005    20A      0.084919    21A      0.085238  
      22A      0.110894    23A      0.114251    24A      0.121491  
      25A      0.128554    26A      0.132745    27A      0.141122  
      28A      0.142447    29A      0.149121    30A      0.161218  
      31A      0.177037    32A      0.183975    33A      0.196479  
      34A      0.197163    35A      0.199367    36A      0.220812  
      37A      0.229619    38A      0.247590    39A      0.254150  
      40A      0.261531    41A      0.269283    42A      0.277955  
      43A      0.283377    44A      0.292187    45A      0.301156  
      46A      0.316345    47A      0.318352    48A      0.327623  
      49A      0.334538    50A      0.341358    51A      0.348862  
      52A      0.353808    53A      0.360897    54A      0.361215  
      55A      0.369421    56A      0.375166    57A      0.386150  
      58A      0.397596    59A      0.417647    60A      0.421804  
      61A      0.423661    62A      0.436055    63A      0.448082  
      64A      0.450528    65A      0.464526    66A      0.475423  
      67A      0.480050    68A      0.484936    69A      0.512110  
      70A      0.522682    71A      0.530415    72A      0.538755  
      73A      0.546427    74A      0.569489    75A      0.572126  
      76A      0.582097    77A      0.589800    78A      0.602950  
      79A      0.633655    80A      0.643574    81A      0.670118  
      82A      0.670760    83A      0.686395    84A      0.696588  
      85A      0.715095    86A      0.720360    87A      0.734697  
      88A      0.735306    89A      0.743932    90A      0.760867  
      91A      0.779540    92A      0.781966    93A      0.788079  
      94A      0.792717    95A      0.798970    96A      0.808113  
      97A      0.827383    98A      0.841480    99A      0.856097  
     100A      0.859364   101A      0.870798   102A      0.877419  
     103A      0.893794   104A      0.895013   105A      0.910587  
     106A      0.913707   107A      0.929276   108A      0.937175  
     109A      0.944996   110A      0.967947   111A      0.974535  
     112A      0.976961   113A      0.991502   114A      0.994269  
     115A      1.017578   116A      1.019024   117A      1.028424  
     118A      1.035977   119A      1.061074   120A      1.069072  
     121A      1.079250   122A      1.080154   123A      1.090359  
     124A      1.102010   125A      1.105032   126A      1.119585  
     127A      1.133022   128A      1.161392   129A      1.166250  
     130A      1.180634   131A      1.182705   132A      1.193021  
     133A      1.208529   134A      1.238333   135A      1.255890  
     136A      1.258252   137A      1.269594   138A      1.290966  
     139A      1.298233   140A      1.315641   141A      1.319161  
     142A      1.330559   143A      1.360447   144A      1.360876  
     145A      1.382020   146A      1.408770   147A      1.425795  
     148A      1.432604   149A      1.450979   150A      1.471956  
     151A      1.477493   152A      1.484535   153A      1.491960  
     154A      1.507762   155A      1.517848   156A      1.530973  
     157A      1.547724   158A      1.554505   159A      1.560380  
     160A      1.574834   161A      1.580933   162A      1.612565  
     163A      1.630888   164A      1.653496   165A      1.662625  
     166A      1.675678   167A      1.680501   168A      1.689240  
     169A      1.703499   170A      1.720826   171A      1.732723  
     172A      1.741674   173A      1.743860   174A      1.746888  
     175A      1.753376   176A      1.754557   177A      1.786720  
     178A      1.812067   179A      1.824892   180A      1.832638  
     181A      1.852372   182A      1.874171   183A      1.876546  
     184A      1.890918   185A      1.916676   186A      1.955659  
     187A      1.973254   188A      2.011998   189A      2.030438  
     190A      2.057445   191A      2.090763   192A      2.117495  
     193A      2.125440   194A      2.158733   195A      2.198201  
     196A      2.276459   197A      2.276758   198A      2.279163  
     199A      2.296870   200A      2.298245   201A      2.349919  
     202A      2.352354   203A      2.387970   204A      2.389000  
     205A      2.449468   206A      2.452515   207A      2.465389  
     208A      2.474838   209A      2.488708   210A      2.493087  
     211A      2.516500   212A      2.556648   213A      2.564702  
     214A      2.576658   215A      2.595298   216A      2.595436  
     217A      2.605131   218A      2.619102   219A      2.640821  
     220A      2.684195   221A      2.701264   222A      2.726143  
     223A      2.726149   224A      2.762169   225A      2.765908  
     226A      2.806269   227A      2.808754   228A      2.837096  
     229A      2.858391   230A      2.866324   231A      2.878697  
     232A      2.903179   233A      2.925352   234A      2.937794  
     235A      2.961351   236A      2.963096   237A      2.990197  
     238A      3.017842   239A      3.029242   240A      3.036882  
     241A      3.079771   242A      3.080448   243A      3.110038  
     244A      3.146064   245A      3.195857   246A      3.207901  
     247A      3.222531   248A      3.224668   249A      3.292129  
     250A      3.317974   251A      3.337622   252A      3.372985  
     253A      3.427251   254A      3.453487   255A      3.466578  
     256A      3.475039   257A      3.558413   258A      3.573300  
     259A      3.593606   260A      3.682967   261A      3.710324  
     262A      3.727808   263A      3.792741   264A      3.803026  
     265A      3.841523   266A      3.852643   267A      3.962339  
     268A      3.979993   269A      4.061583   270A      4.067451  
     271A      4.085232   272A      4.108134   273A      4.112198  
     274A      4.199165   275A      4.212798   276A      4.282458  
     277A      4.290142   278A      4.309875   279A      4.372145  
     280A      4.386575   281A      4.432125   282A      4.467133  
     283A      4.480895   284A      4.509023   285A      4.539766  
     286A      4.578779   287A      4.584779   288A      4.626485  
     289A      4.647689   290A      4.668327   291A      4.749924  
     292A      4.786371   293A      4.810615   294A      4.815046  
     295A      4.859444   296A      4.877654   297A      4.886532  
     298A      4.894500   299A      4.928339   300A      4.930084  
     301A      4.950701   302A      4.963977   303A      4.965362  
     304A      4.988443   305A      5.010819   306A      5.057812  
     307A      5.067809   308A      5.087612   309A      5.113298  
     310A      5.186921   311A      5.189724   312A      5.223533  
     313A      5.229340   314A      5.275861   315A      5.280104  
     316A      5.322332   317A      5.374439   318A      5.377924  
     319A      5.422145   320A      5.463484   321A      5.497771  
     322A      5.506107   323A      5.509507   324A      5.525686  
     325A      5.566263   326A      5.566474   327A      5.692707  
     328A      5.701370   329A      5.741918   330A      5.826132  
     331A      5.850235   332A      5.918498   333A      5.967000  
     334A      6.000530   335A      6.022342   336A      6.054418  
     337A      6.145409   338A      6.175041   339A      6.262545  
     340A      6.335034   341A      6.356258   342A      6.402233  
     343A      6.484243   344A      6.490682   345A      6.552488  
     346A      6.576063   347A      6.626323   348A      6.632372  
     349A      6.637992   350A      6.650707   351A      6.676886  
     352A      6.752065   353A      6.768632   354A      6.829085  
     355A      6.866022   356A      6.899190   357A      6.904907  
     358A      6.916144   359A      6.935306   360A      6.990225  
     361A      7.015382   362A      7.062076   363A      7.123454  
     364A      7.180017   365A      7.243932   366A      7.326367  
     367A      7.333940   368A      7.341377   369A      7.385170  
     370A      7.389438   371A      7.454524   372A      7.492610  
     373A      7.496591   374A      7.583948   375A      7.634207  
     376A      7.645180   377A      7.645850   378A      7.713730  
     379A      7.744393   380A      7.757301   381A      7.770789  
     382A      7.846364   383A      7.914727   384A      7.961512  
     385A      7.982147   386A      8.027060   387A      8.078785  
     388A      8.114454   389A      8.288371   390A      8.355078  
     391A      8.416766   392A      8.505171   393A      8.623128  
     394A      8.777860   395A      9.088710   396A      9.093383  
     397A      9.384164   398A      9.427667   399A      9.616332  
     400A      9.684335   401A      9.813389   402A     10.784821  
     403A     11.307315   404A     11.375961   405A     11.818009  
     406A     12.055233   407A     12.559657   408A     13.199384  
     409A     16.088082   410A     17.152628   411A     19.072380  
     412A     52.938989   413A     62.458703   414A     63.514091  

    Final Occupation by Irrep:
              A 
    DOCC [    12 ]

  @DF-RHF Final Energy:  -188.83885411406430

   => Energetics <=

    Nuclear Repulsion Energy =             69.9953873129111201
    One-Electron Energy =                -397.7175177555359369
    Two-Electron Energy =                 138.8832763285604983
    Total Energy =                       -188.8388541140643042

Computation Completed


Properties will be evaluated at   0.000000,   0.000000,   0.000000 [a0]

Properties computed using the SCF density matrix

  Nuclear Dipole Moment: [e a0]
     X:   -58.2918      Y:     1.3512      Z:     0.0000

  Electronic Dipole Moment: [e a0]
     X:    58.1843      Y:    -2.1824      Z:    -0.0000

  Dipole Moment: [e a0]
     X:    -0.1075      Y:    -0.8312      Z:     0.0000     Total:     0.8381

  Dipole Moment: [D]
     X:    -0.2732      Y:    -2.1127      Z:     0.0000     Total:     2.1303


*** tstop() called on node54.bme.utexas.edu at Mon Sep  9 19:59:17 2019
Module time:
	user time   =      34.96 seconds =       0.58 minutes
	system time =       0.72 seconds =       0.01 minutes
	total time  =         10 seconds =       0.17 minutes
Total time:
	user time   =     100.30 seconds =       1.67 minutes
	system time =       2.04 seconds =       0.03 minutes
	total time  =         28 seconds =       0.47 minutes

  //>>>>>>>>>>>>>>>>>>>>>>>>>>>>>>>>>>>//
  //            Monomer B HF           //
  //<<<<<<<<<<<<<<<<<<<<<<<<<<<<<<<<<<<//


*** tstart() called on node54.bme.utexas.edu
*** at Mon Sep  9 19:59:17 2019

   => Loading Basis Set <=

    Name: AUG-CC-PVTZ
    Role: ORBITAL
    Keyword: BASIS
    atoms 1, 6              entry C          line   235 file /home/xy3866/psi4conda/share/psi4/basis/aug-cc-pvtz.gbs 
    atoms 2, 5, 7, 9, 11-12 entry H          line    36 file /home/xy3866/psi4conda/share/psi4/basis/aug-cc-pvtz.gbs 
    atoms 3-4               entry O          line   327 file /home/xy3866/psi4conda/share/psi4/basis/aug-cc-pvtz.gbs 
    atoms 8, 10             entry N          line   281 file /home/xy3866/psi4conda/share/psi4/basis/aug-cc-pvtz.gbs 


         ---------------------------------------------------------
                                   SCF
               by Justin Turney, Rob Parrish, Andy Simmonett
                          and Daniel G. A. Smith
                              RHF Reference
                        4 Threads,  30517 MiB Core
         ---------------------------------------------------------

  ==> Geometry <==

    Molecular point group: c1
    Full point group: C1

    Geometry (in Angstrom), charge = 0, multiplicity = 1:

       Center              X                  Y                   Z               Mass       
    ------------   -----------------  -----------------  -----------------  -----------------
      Gh(C)          -1.673623582609     0.145815789763    -0.000001485030    12.000000000000
      Gh(H)          -2.768108582609     0.147535789763    -0.000003485030     1.007825032230
      Gh(O)          -1.025214582609     1.177822789763    -0.000001485030    15.994914619570
      Gh(O)          -1.206006582609    -1.081236210237     0.000002514970    15.994914619570
      Gh(H)          -0.187068582609    -1.080104210237     0.000009514970     1.007825032230
         C            1.734839917391    -0.176749610237    -0.000002585030    12.000000000000
         H            2.816655917391    -0.298974610237    -0.000004585030     1.007825032230
         N            0.917048917391    -1.174116610237    -0.000000585030    14.003074004430
         H            1.427643917391    -2.047621610237    -0.000000585030     1.007825032230
         N            1.319989917391     1.100074389763     0.000002414970    14.003074004430
         H            0.323972917391     1.298607389763     0.000001414970     1.007825032230
         H            1.986909917391     1.844750389763     0.000004414970     1.007825032230

  Running in c1 symmetry.

  Rotational constants: A =      0.19068  B =      0.10042  C =      0.06578 [cm^-1]
  Rotational constants: A =   5716.31952  B =   3010.50775  C =   1971.96801 [MHz]
  Nuclear repulsion =   72.334192798714000

  Charge       = 0
  Multiplicity = 1
  Electrons    = 24
  Nalpha       = 12
  Nbeta        = 12

  ==> Algorithm <==

  SCF Algorithm Type is DF.
  DIIS enabled.
  MOM disabled.
  Fractional occupation disabled.
  Guess Type is SAD.
  Energy threshold   = 1.00e-08
  Density threshold  = 1.00e-08
  Integral threshold = 0.00e+00

  ==> Primary Basis <==

  Basis Set: AUG-CC-PVTZ
    Blend: AUG-CC-PVTZ
    Number of shells: 138
    Number of basis function: 414
    Number of Cartesian functions: 480
    Spherical Harmonics?: true
    Max angular momentum: 3

   => Loading Basis Set <=

    Name: (AUG-CC-PVTZ AUX)
    Role: JKFIT
    Keyword: DF_BASIS_SCF
    atoms 1, 6              entry C          line   162 file /home/xy3866/psi4conda/share/psi4/basis/aug-cc-pvtz-jkfit.gbs 
    atoms 2, 5, 7, 9, 11-12 entry H          line    70 file /home/xy3866/psi4conda/share/psi4/basis/aug-cc-pvtz-jkfit.gbs 
    atoms 3-4               entry O          line   286 file /home/xy3866/psi4conda/share/psi4/basis/aug-cc-pvtz-jkfit.gbs 
    atoms 8, 10             entry N          line   224 file /home/xy3866/psi4conda/share/psi4/basis/aug-cc-pvtz-jkfit.gbs 

  ==> Pre-Iterations <==

   -------------------------------------------------------
    Irrep   Nso     Nmo     Nalpha   Nbeta   Ndocc  Nsocc
   -------------------------------------------------------
     A        414     414       0       0       0       0
   -------------------------------------------------------
    Total     414     414      12      12      12       0
   -------------------------------------------------------

  ==> Integral Setup <==

  ==> DiskDFJK: Density-Fitted J/K Matrices <==

    J tasked:                  Yes
    K tasked:                  Yes
    wK tasked:                  No
    OpenMP threads:              4
    Integrals threads:           4
    Memory [MiB]:            22888
    Algorithm:                Core
    Integral Cache:           LOAD
    Schwarz Cutoff:          1E-12
    Fitting Condition:       1E-10

   => Auxiliary Basis Set <=

  Basis Set: (AUG-CC-PVTZ AUX)
    Blend: AUG-CC-PVTZ-JKFIT
    Number of shells: 264
    Number of basis function: 900
    Number of Cartesian functions: 1116
    Spherical Harmonics?: true
    Max angular momentum: 4

  Minimum eigenvalue in the overlap matrix is 1.6939131728E-05.
  Using Symmetric Orthogonalization.

  SCF Guess: Superposition of Atomic Densities via on-the-fly atomic UHF.

  ==> Iterations <==

                           Total Energy        Delta E     RMS |[F,P]|

   @DF-RHF iter SAD:  -148.39929917910331   -1.48399e+02   0.00000e+00 
   @DF-RHF iter   1:  -148.99818298002140   -5.98884e-01   1.32816e-03 DIIS
   @DF-RHF iter   2:  -149.10028810256469   -1.02105e-01   7.81734e-04 DIIS
   @DF-RHF iter   3:  -149.14211834190351   -4.18302e-02   1.09343e-04 DIIS
   @DF-RHF iter   4:  -149.14352943921926   -1.41110e-03   5.40669e-05 DIIS
   @DF-RHF iter   5:  -149.14380642605676   -2.76987e-04   9.80831e-06 DIIS
   @DF-RHF iter   6:  -149.14383487830946   -2.84523e-05   4.60331e-06 DIIS
   @DF-RHF iter   7:  -149.14383952843286   -4.65012e-06   1.85507e-06 DIIS
   @DF-RHF iter   8:  -149.14384044723684   -9.18804e-07   5.50509e-07 DIIS
   @DF-RHF iter   9:  -149.14384053240931   -8.51725e-08   1.68748e-07 DIIS
   @DF-RHF iter  10:  -149.14384053991012   -7.50080e-09   4.19479e-08 DIIS
   @DF-RHF iter  11:  -149.14384054038172   -4.71601e-10   7.95821e-09 DIIS
  Energy and wave function converged.


  ==> Post-Iterations <==

    Orbital Energies [Eh]
    ---------------------

    Doubly Occupied:                                                      

       1A    -15.580654     2A    -15.518244     3A    -11.313908  
       4A     -1.260936     5A     -1.136062     6A     -0.830600  
       7A     -0.749102     8A     -0.640556     9A     -0.618102  
      10A     -0.530867    11A     -0.417493    12A     -0.358861  

    Virtual:                                                              

      13A      0.022780    14A      0.032704    15A      0.038035  
      16A      0.053402    17A      0.061464    18A      0.073300  
      19A      0.074518    20A      0.090238    21A      0.102236  
      22A      0.113708    23A      0.118911    24A      0.119890  
      25A      0.129791    26A      0.136534    27A      0.144833  
      28A      0.155879    29A      0.157759    30A      0.163082  
      31A      0.175420    32A      0.188840    33A      0.192015  
      34A      0.210078    35A      0.212467    36A      0.228580  
      37A      0.230867    38A      0.233670    39A      0.260547  
      40A      0.262895    41A      0.264529    42A      0.282487  
      43A      0.288672    44A      0.298221    45A      0.306328  
      46A      0.317638    47A      0.321562    48A      0.330335  
      49A      0.337473    50A      0.341480    51A      0.342368  
      52A      0.349717    53A      0.360727    54A      0.368589  
      55A      0.379615    56A      0.388869    57A      0.411111  
      58A      0.419857    59A      0.423765    60A      0.430746  
      61A      0.432523    62A      0.433498    63A      0.449774  
      64A      0.461031    65A      0.483177    66A      0.484147  
      67A      0.489638    68A      0.502762    69A      0.514952  
      70A      0.525613    71A      0.531167    72A      0.537471  
      73A      0.547271    74A      0.557510    75A      0.573645  
      76A      0.584269    77A      0.591010    78A      0.603901  
      79A      0.627636    80A      0.652880    81A      0.659669  
      82A      0.663914    83A      0.669240    84A      0.688263  
      85A      0.699877    86A      0.709508    87A      0.710837  
      88A      0.714128    89A      0.724848    90A      0.748233  
      91A      0.769390    92A      0.773500    93A      0.787973  
      94A      0.805593    95A      0.824585    96A      0.831460  
      97A      0.850021    98A      0.865190    99A      0.872476  
     100A      0.876268   101A      0.897826   102A      0.907428  
     103A      0.924078   104A      0.934720   105A      0.939471  
     106A      0.942049   107A      0.942420   108A      0.956520  
     109A      0.966156   110A      0.980620   111A      0.986880  
     112A      0.991978   113A      1.004963   114A      1.007133  
     115A      1.017657   116A      1.019543   117A      1.031168  
     118A      1.031561   119A      1.049245   120A      1.061365  
     121A      1.061476   122A      1.079734   123A      1.104526  
     124A      1.104668   125A      1.114701   126A      1.125899  
     127A      1.134099   128A      1.143064   129A      1.152305  
     130A      1.165018   131A      1.179012   132A      1.180391  
     133A      1.197746   134A      1.207029   135A      1.215077  
     136A      1.224018   137A      1.244632   138A      1.256699  
     139A      1.265527   140A      1.288799   141A      1.289078  
     142A      1.296577   143A      1.336753   144A      1.342335  
     145A      1.364295   146A      1.368835   147A      1.386302  
     148A      1.392053   149A      1.416626   150A      1.424793  
     151A      1.436704   152A      1.439751   153A      1.455334  
     154A      1.468720   155A      1.473305   156A      1.496392  
     157A      1.506776   158A      1.522348   159A      1.555627  
     160A      1.570053   161A      1.590876   162A      1.598986  
     163A      1.622400   164A      1.633315   165A      1.647381  
     166A      1.658277   167A      1.687295   168A      1.728524  
     169A      1.743885   170A      1.744750   171A      1.750910  
     172A      1.775549   173A      1.778694   174A      1.791640  
     175A      1.808575   176A      1.842553   177A      1.858851  
     178A      1.875804   179A      1.892913   180A      1.898364  
     181A      1.927741   182A      1.938213   183A      1.949343  
     184A      1.970920   185A      1.975071   186A      2.000778  
     187A      2.013852   188A      2.035581   189A      2.054318  
     190A      2.073522   191A      2.097763   192A      2.118008  
     193A      2.145597   194A      2.148704   195A      2.181604  
     196A      2.204575   197A      2.207249   198A      2.229641  
     199A      2.248244   200A      2.259013   201A      2.308089  
     202A      2.313454   203A      2.349980   204A      2.362476  
     205A      2.372926   206A      2.399706   207A      2.403616  
     208A      2.475142   209A      2.499836   210A      2.524598  
     211A      2.528698   212A      2.549886   213A      2.563288  
     214A      2.574102   215A      2.595676   216A      2.613901  
     217A      2.619631   218A      2.632510   219A      2.643843  
     220A      2.695722   221A      2.699666   222A      2.727333  
     223A      2.740498   224A      2.766580   225A      2.767129  
     226A      2.774733   227A      2.803091   228A      2.807021  
     229A      2.845180   230A      2.851834   231A      2.862377  
     232A      2.917644   233A      2.917761   234A      2.949626  
     235A      3.009410   236A      3.021436   237A      3.034267  
     238A      3.057973   239A      3.110689   240A      3.135080  
     241A      3.153578   242A      3.208691   243A      3.239187  
     244A      3.259049   245A      3.267178   246A      3.318851  
     247A      3.374897   248A      3.397785   249A      3.470787  
     250A      3.471120   251A      3.492158   252A      3.502062  
     253A      3.522474   254A      3.567139   255A      3.587399  
     256A      3.623263   257A      3.655568   258A      3.693524  
     259A      3.715904   260A      3.731346   261A      3.769944  
     262A      3.778196   263A      3.842061   264A      3.877480  
     265A      3.894075   266A      3.927055   267A      3.957662  
     268A      3.970895   269A      3.988931   270A      4.058102  
     271A      4.093785   272A      4.108262   273A      4.119242  
     274A      4.120413   275A      4.153636   276A      4.184663  
     277A      4.230300   278A      4.239095   279A      4.261159  
     280A      4.273997   281A      4.287443   282A      4.292112  
     283A      4.328867   284A      4.381753   285A      4.385925  
     286A      4.425797   287A      4.429745   288A      4.448742  
     289A      4.480368   290A      4.489497   291A      4.535423  
     292A      4.599086   293A      4.621931   294A      4.658798  
     295A      4.688451   296A      4.715372   297A      4.722710  
     298A      4.740344   299A      4.778827   300A      4.812872  
     301A      4.849049   302A      4.865815   303A      4.874941  
     304A      4.891973   305A      4.904362   306A      4.929901  
     307A      4.960214   308A      4.967242   309A      5.012222  
     310A      5.012945   311A      5.073233   312A      5.104737  
     313A      5.108492   314A      5.127505   315A      5.157994  
     316A      5.179383   317A      5.209167   318A      5.219332  
     319A      5.300967   320A      5.313053   321A      5.340132  
     322A      5.361849   323A      5.389982   324A      5.428506  
     325A      5.461346   326A      5.488382   327A      5.498248  
     328A      5.518190   329A      5.543852   330A      5.554365  
     331A      5.588767   332A      5.601660   333A      5.631023  
     334A      5.651626   335A      5.699514   336A      5.704984  
     337A      5.742760   338A      5.817637   339A      5.836553  
     340A      5.840431   341A      5.841511   342A      5.931831  
     343A      5.949400   344A      5.972184   345A      6.018548  
     346A      6.030640   347A      6.104442   348A      6.129944  
     349A      6.184846   350A      6.257229   351A      6.260631  
     352A      6.383766   353A      6.410656   354A      6.453775  
     355A      6.459692   356A      6.522227   357A      6.586742  
     358A      6.686240   359A      6.744960   360A      6.787718  
     361A      6.820327   362A      6.906947   363A      7.025389  
     364A      7.088435   365A      7.131202   366A      7.278202  
     367A      7.342435   368A      7.525515   369A      7.565724  
     370A      7.672390   371A      7.708475   372A      7.737452  
     373A      7.765730   374A      7.859741   375A      7.901902  
     376A      7.914586   377A      7.982659   378A      8.017047  
     379A      8.049529   380A      8.138872   381A      8.188190  
     382A      8.270470   383A      8.364775   384A      8.471047  
     385A      8.665935   386A      8.799319   387A      8.931664  
     388A      9.274227   389A      9.445619   390A      9.845820  
     391A      9.889862   392A      9.959422   393A     10.067327  
     394A     10.176703   395A     10.295376   396A     10.465106  
     397A     10.539279   398A     10.893070   399A     11.180471  
     400A     11.331563   401A     11.864326   402A     12.019591  
     403A     12.452859   404A     12.884475   405A     13.221541  
     406A     13.629090   407A     14.260266   408A     14.663404  
     409A     18.109058   410A     19.100612   411A     19.584092  
     412A     52.707048   413A     66.231536   414A     69.613782  

    Final Occupation by Irrep:
              A 
    DOCC [    12 ]

  @DF-RHF Final Energy:  -149.14384054038172

   => Energetics <=

    Nuclear Repulsion Energy =             72.3341927987139997
    One-Electron Energy =                -345.0452920176027192
    Two-Electron Energy =                 123.5672586785069882
    Total Energy =                       -149.1438405403817171

Computation Completed


Properties will be evaluated at   0.000000,   0.000000,   0.000000 [a0]

Properties computed using the SCF density matrix

  Nuclear Dipole Moment: [e a0]
     X:    61.6495      Y:    -1.4778      Z:    -0.0000

  Electronic Dipole Moment: [e a0]
     X:   -60.7364      Y:     2.3673      Z:     0.0000

  Dipole Moment: [e a0]
     X:     0.9130      Y:     0.8895      Z:    -0.0000     Total:     1.2747

  Dipole Moment: [D]
     X:     2.3207      Y:     2.2608      Z:    -0.0000     Total:     3.2399


*** tstop() called on node54.bme.utexas.edu at Mon Sep  9 19:59:27 2019
Module time:
	user time   =      35.39 seconds =       0.59 minutes
	system time =       0.69 seconds =       0.01 minutes
	total time  =         10 seconds =       0.17 minutes
Total time:
	user time   =     135.72 seconds =       2.26 minutes
	system time =       2.73 seconds =       0.05 minutes
	total time  =         38 seconds =       0.63 minutes
  Constructing Basis Sets for SAPT...

   => Loading Basis Set <=

    Name: (AUG-CC-PVTZ AUX)
    Role: RIFIT
    Keyword: DF_BASIS_SAPT
    atoms 1, 6              entry C          line   148 file /home/xy3866/psi4conda/share/psi4/basis/aug-cc-pvtz-ri.gbs 
    atoms 2, 5, 7, 9, 11-12 entry H          line    30 file /home/xy3866/psi4conda/share/psi4/basis/aug-cc-pvtz-ri.gbs 
    atoms 3-4               entry O          line   264 file /home/xy3866/psi4conda/share/psi4/basis/aug-cc-pvtz-ri.gbs 
    atoms 8, 10             entry N          line   206 file /home/xy3866/psi4conda/share/psi4/basis/aug-cc-pvtz-ri.gbs 


  //>>>>>>>>>>>>>>>>>>>>>>>>>>>>>>>>>>>//
  //               SAPT2+              //
  //<<<<<<<<<<<<<<<<<<<<<<<<<<<<<<<<<<<//


*** tstart() called on node54.bme.utexas.edu
*** at Mon Sep  9 19:59:27 2019

        SAPT2+  
    Ed Hohenstein
     6 June 2009

      Orbital Information
  --------------------------
    NSO        =       414
    NMO        =       414
    NRI        =       912
    NOCC A     =        12
    NOCC B     =        12
    FOCC A     =         3
    FOCC B     =         3
    NVIR A     =       402
    NVIR B     =       402

    Estimated memory usage: 1737.6 MB

    Natural Orbital Cutoff:   1.000E-06
    Disp(T3) Truncation:            Yes
    CCD (vv|vv) Truncation:         Yes
    MBPT T2 Truncation:             Yes

    Monomer A: 227 virtual orbitals dropped
    Monomer B: 190 virtual orbitals dropped

    Elst10,r            =    -0.155633563284 [Eh]
    Exch10 (S^2)        =     0.308968640152 [Eh]
    Exch10              =     0.341945025944 [Eh]
    Ind20,r (A<-B)      =    -0.086392856361 [Eh]
    Ind20,r (B<-A)      =    -0.123329846941 [Eh]
    Ind20,r             =    -0.209722703301 [Eh]
    Exch-Ind20,r (A<-B) =     0.056380567999 [Eh]
    Exch-Ind20,r (B<-A) =     0.055500061827 [Eh]
    Exch-Ind20,r        =     0.111880629826 [Eh]
    Disp20              =    -0.062077439865 [Eh]
    Disp20 (NO)         =    -0.056905311043 [Eh]
    Exch-Disp20         =     0.013542664832 [Eh]
    Elst12,r            =     0.000589764470 [Eh]
    Exch11              =     0.002086222772 [Eh]
    Exch12              =     0.010121666331 [Eh]
    Ind22               =    -0.019851621166 [Eh]
    Disp21              =     0.008902548180 [Eh]
    Disp22 (SDQ)        =    -0.000959647054 [Eh]

    (i =   1 of   9)         25 seconds
    (i =   2 of   9)         49 seconds
    (i =   3 of   9)         74 seconds
    (i =   4 of   9)         98 seconds
    (i =   5 of   9)        122 seconds
    (i =   6 of   9)        147 seconds
    (i =   7 of   9)        171 seconds
    (i =   8 of   9)        195 seconds
    (i =   9 of   9)        219 seconds

    Disp220 (T)         =    -0.004934564999 [Eh]

    (i =   1 of   9)         30 seconds
    (i =   2 of   9)         62 seconds
    (i =   3 of   9)         93 seconds
    (i =   4 of   9)        124 seconds
    (i =   5 of   9)        155 seconds
    (i =   6 of   9)        186 seconds
    (i =   7 of   9)        217 seconds
    (i =   8 of   9)        247 seconds
    (i =   9 of   9)        278 seconds

    Disp202 (T)         =    -0.004023957017 [Eh]

    Disp22 (T)          =    -0.008958522015 [Eh]

    Est. Disp220 (T)    =    -0.005383068054 [Eh]
    Est. Disp202 (T)    =    -0.004389694831 [Eh]

    Est. Disp22 (T)     =    -0.009772762885 [Eh]

    SAPT Results 
  --------------------------------------------------------------------------------------------------------
    Electrostatics               -155.04379881 [mEh]     -97.29145261 [kcal/mol]    -407.06743771 [kJ/mol]
      Elst10,r                   -155.63356328 [mEh]     -97.66153540 [kcal/mol]    -408.61586411 [kJ/mol]
      Elst12,r                      0.58976447 [mEh]       0.37008279 [kcal/mol]       1.54842640 [kJ/mol]

    Exchange                      354.15291505 [mEh]     222.23430936 [kcal/mol]     929.82835035 [kJ/mol]
      Exch10                      341.94502594 [mEh]     214.57374329 [kcal/mol]     897.77654193 [kJ/mol]
      Exch10(S^2)                 308.96864015 [mEh]     193.88074880 [kcal/mol]     811.19705296 [kJ/mol]
      Exch11(S^2)                   2.08622277 [mEh]       1.30912455 [kcal/mol]       5.47737713 [kJ/mol]
      Exch12(S^2)                  10.12166633 [mEh]       6.35144151 [kcal/mol]      26.57443129 [kJ/mol]

    Induction                    -151.05718483 [mEh]     -94.78981456 [kcal/mol]    -396.60058414 [kJ/mol]
      Ind20,r                    -209.72270330 [mEh]    -131.60298319 [kcal/mol]    -550.62688166 [kJ/mol]
      Ind22                       -19.85162117 [mEh]     -12.45708035 [kcal/mol]     -52.12042419 [kJ/mol]
      Exch-Ind20,r                111.88062983 [mEh]      70.20615515 [kcal/mol]     293.74255314 [kJ/mol]
      Exch-Ind22                   10.59023102 [mEh]       6.64547030 [kcal/mol]      27.80464772 [kJ/mol]
      delta HF,r (2)              -43.95372122 [mEh]     -27.58137647 [kcal/mol]    -115.40047915 [kJ/mol]

    Dispersion                    -50.36463679 [mEh]     -31.60428673 [kcal/mol]    -132.23233568 [kJ/mol]
      Disp20                      -62.07743987 [mEh]     -38.95418162 [kcal/mol]    -162.98429591 [kJ/mol]
      Disp21                        8.90254818 [mEh]       5.58643332 [kcal/mol]      23.37363703 [kJ/mol]
      Disp22 (SDQ)                 -0.95964705 [mEh]      -0.60218762 [kcal/mol]      -2.51955299 [kJ/mol]
      Disp22 (T)                   -8.95852202 [mEh]      -5.62155744 [kcal/mol]     -23.52059631 [kJ/mol]
      Est. Disp22 (T)              -9.77276288 [mEh]      -6.13250130 [kcal/mol]     -25.65838542 [kJ/mol]
      Exch-Disp20                  13.54266483 [mEh]       8.49815048 [kcal/mol]      35.55626162 [kJ/mol]

  Total HF                         44.51566797 [mEh]      27.93400338 [kcal/mol]     116.87587015 [kJ/mol]
  Total SAPT0                      -4.01910706 [mEh]      -2.52202776 [kcal/mol]     -10.55216414 [kJ/mol]
  Total SAPT2                      -0.48284363 [mEh]      -0.30298895 [kcal/mol]      -1.26770578 [kJ/mol]
  Total SAPT2+                     -2.31270539 [mEh]      -1.45124454 [kcal/mol]      -6.07200717 [kJ/mol]

  Special recipe for scaled SAPT0 (see Manual):
    Electrostatics sSAPT0        -155.63356328 [mEh]     -97.66153540 [kcal/mol]    -408.61586411 [kJ/mol]
    Exchange sSAPT0               341.94502594 [mEh]     214.57374329 [kcal/mol]     897.77654193 [kJ/mol]
    Induction sSAPT0             -102.01310044 [mEh]     -64.01418698 [kcal/mol]    -267.83535831 [kJ/mol]
    Dispersion sSAPT0             -43.71925250 [mEh]     -27.43424513 [kcal/mol]    -114.78488162 [kJ/mol]
  Total sSAPT0                     40.57910972 [mEh]      25.46377579 [kcal/mol]     106.54043789 [kJ/mol]
  --------------------------------------------------------------------------------------------------------

*** tstop() called on node54.bme.utexas.edu at Mon Sep  9 20:11:16 2019
Module time:
	user time   =    2727.26 seconds =      45.45 minutes
	system time =      46.67 seconds =       0.78 minutes
	total time  =        709 seconds =      11.82 minutes
Total time:
	user time   =    2863.31 seconds =      47.72 minutes
	system time =      49.41 seconds =       0.82 minutes
	total time  =        747 seconds =      12.45 minutes

    Psi4 stopped on: Monday, 09 September 2019 08:11PM
    Psi4 wall time for execution: 0:12:27.22

*** Psi4 exiting successfully. Buy a developer a beer!
