
    -----------------------------------------------------------------------
          Psi4: An Open-Source Ab Initio Electronic Structure Package
                               Psi4 1.3.2 release

                         Git: Rev {HEAD} ecbda83 


    R. M. Parrish, L. A. Burns, D. G. A. Smith, A. C. Simmonett,
    A. E. DePrince III, E. G. Hohenstein, U. Bozkaya, A. Yu. Sokolov,
    R. Di Remigio, R. M. Richard, J. F. Gonthier, A. M. James,
    H. R. McAlexander, A. Kumar, M. Saitow, X. Wang, B. P. Pritchard,
    P. Verma, H. F. Schaefer III, K. Patkowski, R. A. King, E. F. Valeev,
    F. A. Evangelista, J. M. Turney, T. D. Crawford, and C. D. Sherrill,
    J. Chem. Theory Comput. 13(7) pp 3185--3197 (2017).
    (doi: 10.1021/acs.jctc.7b00174)


                         Additional Contributions by
    P. Kraus, H. Kruse, M. H. Lechner, M. C. Schieber, R. A. Shaw,
    A. Alenaizan, R. Galvelis, Z. L. Glick, S. Lehtola, and J. P. Misiewicz

    -----------------------------------------------------------------------


    Psi4 started on: Monday, 09 September 2019 08:47PM

    Process ID: 61013
    Host:       node54.bme.utexas.edu
    PSIDATADIR: /home/xy3866/psi4conda/share/psi4
    Memory:     500.0 MiB
    Threads:    4
    
  ==> Input File <==

--------------------------------------------------------------------------
#psi4
#
memory 32 gb

molecule  {
0 1
  C       -1.9644470     0.1609890    -0.0000020
  H       -3.0589320     0.1627090    -0.0000040
  O       -1.3160380     1.1929960    -0.0000020
  O       -1.4968300    -1.0660630     0.0000020
  H       -0.4778920    -1.0649310     0.0000090
--
0 1
  C        2.1421821    -0.1882372    -0.0000030
  H        3.2239981    -0.3104621    -0.0000050
  N        1.3243911    -1.1856042    -0.0000010
  H        1.8349861    -2.0591092    -0.0000010
  N        1.7273321     1.0885868     0.0000020
  H        0.7313151     1.2871198     0.0000010
  H        2.3942521     1.8332628     0.0000040
units angstrom
no_reorient  #important for SAPT in psi4, default
symmetry c1  #important for SAPT in psi4, default
}

set {
basis aug-cc-pVTZ
scf_type DF
freeze_core True
}
energy('sapt2+')
--------------------------------------------------------------------------

  Memory set to  29.802 GiB by Python driver.

  //>>>>>>>>>>>>>>>>>>>>>>>>>>>>>>>>>>>//
  //              Dimer HF             //
  //<<<<<<<<<<<<<<<<<<<<<<<<<<<<<<<<<<<//


*** tstart() called on node54.bme.utexas.edu
*** at Mon Sep  9 20:47:26 2019

   => Loading Basis Set <=

    Name: AUG-CC-PVTZ
    Role: ORBITAL
    Keyword: BASIS
    atoms 1, 6              entry C          line   235 file /home/xy3866/psi4conda/share/psi4/basis/aug-cc-pvtz.gbs 
    atoms 2, 5, 7, 9, 11-12 entry H          line    36 file /home/xy3866/psi4conda/share/psi4/basis/aug-cc-pvtz.gbs 
    atoms 3-4               entry O          line   327 file /home/xy3866/psi4conda/share/psi4/basis/aug-cc-pvtz.gbs 
    atoms 8, 10             entry N          line   281 file /home/xy3866/psi4conda/share/psi4/basis/aug-cc-pvtz.gbs 


         ---------------------------------------------------------
                                   SCF
               by Justin Turney, Rob Parrish, Andy Simmonett
                          and Daniel G. A. Smith
                              RHF Reference
                        4 Threads,  30517 MiB Core
         ---------------------------------------------------------

  ==> Geometry <==

    Molecular point group: c1
    Full point group: C1

    Geometry (in Angstrom), charge = 0, multiplicity = 1:

       Center              X                  Y                   Z               Mass       
    ------------   -----------------  -----------------  -----------------  -----------------
         C           -2.015076623678     0.158854831583    -0.000001533938    12.000000000000
         H           -3.109561623678     0.160574831583    -0.000003533938     1.007825032230
         O           -1.366667623678     1.190861831583    -0.000001533938    15.994914619570
         O           -1.547459623678    -1.068197168417     0.000002466062    15.994914619570
         H           -0.528521623678    -1.067065168417     0.000009466062     1.007825032230
         C            2.091552476322    -0.190371368417    -0.000002533938    12.000000000000
         H            3.173368476322    -0.312596268417    -0.000004533938     1.007825032230
         N            1.273761476322    -1.187738368417    -0.000000533938    14.003074004430
         H            1.784356476322    -2.061243368417    -0.000000533938     1.007825032230
         N            1.676702476322     1.086452631583     0.000002466062    14.003074004430
         H            0.680685476322     1.284985631583     0.000001466062     1.007825032230
         H            2.343622476322     1.831128631583     0.000004466062     1.007825032230

  Running in c1 symmetry.

  Rotational constants: A =      0.19051  B =      0.06460  C =      0.04824 [cm^-1]
  Rotational constants: A =   5711.23674  B =   1936.79099  C =   1446.31691 [MHz]
  Nuclear repulsion =  228.914665696473975

  Charge       = 0
  Multiplicity = 1
  Electrons    = 48
  Nalpha       = 24
  Nbeta        = 24

  ==> Algorithm <==

  SCF Algorithm Type is DF.
  DIIS enabled.
  MOM disabled.
  Fractional occupation disabled.
  Guess Type is SAD.
  Energy threshold   = 1.00e-08
  Density threshold  = 1.00e-08
  Integral threshold = 0.00e+00

  ==> Primary Basis <==

  Basis Set: AUG-CC-PVTZ
    Blend: AUG-CC-PVTZ
    Number of shells: 138
    Number of basis function: 414
    Number of Cartesian functions: 480
    Spherical Harmonics?: true
    Max angular momentum: 3

   => Loading Basis Set <=

    Name: (AUG-CC-PVTZ AUX)
    Role: JKFIT
    Keyword: DF_BASIS_SCF
    atoms 1, 6              entry C          line   162 file /home/xy3866/psi4conda/share/psi4/basis/aug-cc-pvtz-jkfit.gbs 
    atoms 2, 5, 7, 9, 11-12 entry H          line    70 file /home/xy3866/psi4conda/share/psi4/basis/aug-cc-pvtz-jkfit.gbs 
    atoms 3-4               entry O          line   286 file /home/xy3866/psi4conda/share/psi4/basis/aug-cc-pvtz-jkfit.gbs 
    atoms 8, 10             entry N          line   224 file /home/xy3866/psi4conda/share/psi4/basis/aug-cc-pvtz-jkfit.gbs 

  ==> Pre-Iterations <==

   -------------------------------------------------------
    Irrep   Nso     Nmo     Nalpha   Nbeta   Ndocc  Nsocc
   -------------------------------------------------------
     A        414     414       0       0       0       0
   -------------------------------------------------------
    Total     414     414      24      24      24       0
   -------------------------------------------------------

  ==> Integral Setup <==

  ==> DiskDFJK: Density-Fitted J/K Matrices <==

    J tasked:                  Yes
    K tasked:                  Yes
    wK tasked:                  No
    OpenMP threads:              4
    Integrals threads:           4
    Memory [MiB]:            22888
    Algorithm:                Core
    Integral Cache:           SAVE
    Schwarz Cutoff:          1E-12
    Fitting Condition:       1E-10

   => Auxiliary Basis Set <=

  Basis Set: (AUG-CC-PVTZ AUX)
    Blend: AUG-CC-PVTZ-JKFIT
    Number of shells: 264
    Number of basis function: 900
    Number of Cartesian functions: 1116
    Spherical Harmonics?: true
    Max angular momentum: 4

  Minimum eigenvalue in the overlap matrix is 2.5900168185E-05.
  Using Symmetric Orthogonalization.

  SCF Guess: Superposition of Atomic Densities via on-the-fly atomic UHF.

  ==> Iterations <==

                           Total Energy        Delta E     RMS |[F,P]|

   @DF-RHF iter SAD:  -336.59630141761448   -3.36596e+02   0.00000e+00 
   @DF-RHF iter   1:  -337.79282280216597   -1.19652e+00   1.72774e-03 DIIS
   @DF-RHF iter   2:  -337.94186085194150   -1.49038e-01   1.04649e-03 DIIS
   @DF-RHF iter   3:  -338.00621697777643   -6.43561e-02   1.47421e-04 DIIS
   @DF-RHF iter   4:  -338.00845881967183   -2.24184e-03   7.11111e-05 DIIS
   @DF-RHF iter   5:  -338.00889350046646   -4.34681e-04   1.58119e-05 DIIS
   @DF-RHF iter   6:  -338.00894551547179   -5.20150e-05   7.90082e-06 DIIS
   @DF-RHF iter   7:  -338.00895861380678   -1.30983e-05   2.93634e-06 DIIS
   @DF-RHF iter   8:  -338.00896080878266   -2.19498e-06   1.10597e-06 DIIS
   @DF-RHF iter   9:  -338.00896108801965   -2.79237e-07   4.06643e-07 DIIS
   @DF-RHF iter  10:  -338.00896112559997   -3.75803e-08   1.50423e-07 DIIS
   @DF-RHF iter  11:  -338.00896112952938   -3.92942e-09   5.01029e-08 DIIS
   @DF-RHF iter  12:  -338.00896112996031   -4.30930e-10   1.58871e-08 DIIS
   @DF-RHF iter  13:  -338.00896112999345   -3.31397e-11   3.83945e-09 DIIS
  Energy and wave function converged.


  ==> Post-Iterations <==

    Orbital Energies [Eh]
    ---------------------

    Doubly Occupied:                                                      

       1A    -20.589439     2A    -20.543832     3A    -15.581025  
       4A    -15.539579     5A    -11.377013     6A    -11.333957  
       7A     -1.445919     8A     -1.347343     9A     -1.272102  
      10A     -1.153516    11A     -0.872309    12A     -0.838440  
      13A     -0.759448    14A     -0.707346    15A     -0.696451  
      16A     -0.647344    17A     -0.631143    18A     -0.610928  
      19A     -0.571380    20A     -0.541024    21A     -0.468921  
      22A     -0.465607    23A     -0.437748    24A     -0.376206  

    Virtual:                                                              

      25A      0.023031    26A      0.036629    27A      0.039156  
      28A      0.051201    29A      0.069610    30A      0.073175  
      31A      0.074200    32A      0.088810    33A      0.109992  
      34A      0.115930    35A      0.119532    36A      0.125826  
      37A      0.134997    38A      0.139765    39A      0.143394  
      40A      0.147380    41A      0.154315    42A      0.163241  
      43A      0.180612    44A      0.191476    45A      0.197643  
      46A      0.200328    47A      0.209916    48A      0.216420  
      49A      0.229570    50A      0.251288    51A      0.261052  
      52A      0.261670    53A      0.271407    54A      0.273690  
      55A      0.280471    56A      0.287344    57A      0.300070  
      58A      0.306356    59A      0.314558    60A      0.320806  
      61A      0.321206    62A      0.326270    63A      0.330303  
      64A      0.342357    65A      0.361984    66A      0.364776  
      67A      0.381865    68A      0.384428    69A      0.386511  
      70A      0.396485    71A      0.408348    72A      0.409774  
      73A      0.428067    74A      0.434427    75A      0.439377  
      76A      0.441830    77A      0.456530    78A      0.466379  
      79A      0.476871    80A      0.494871    81A      0.498120  
      82A      0.505730    83A      0.509181    84A      0.520528  
      85A      0.531990    86A      0.534645    87A      0.558506  
      88A      0.567774    89A      0.586275    90A      0.587481  
      91A      0.598473    92A      0.604140    93A      0.631672  
      94A      0.640041    95A      0.654283    96A      0.658662  
      97A      0.674530    98A      0.685214    99A      0.686303  
     100A      0.700426   101A      0.707202   102A      0.711636  
     103A      0.726105   104A      0.733338   105A      0.760734  
     106A      0.761170   107A      0.777986   108A      0.782340  
     109A      0.807022   110A      0.814091   111A      0.823609  
     112A      0.843931   113A      0.848911   114A      0.853663  
     115A      0.861017   116A      0.890377   117A      0.897223  
     118A      0.908976   119A      0.909746   120A      0.918003  
     121A      0.929850   122A      0.942569   123A      0.945815  
     124A      0.952666   125A      0.960081   126A      0.967033  
     127A      0.981075   128A      0.983348   129A      0.986213  
     130A      1.001002   131A      1.003626   132A      1.014190  
     133A      1.016067   134A      1.027217   135A      1.048519  
     136A      1.058797   137A      1.068422   138A      1.072243  
     139A      1.083136   140A      1.087763   141A      1.090058  
     142A      1.121668   143A      1.123358   144A      1.130442  
     145A      1.148240   146A      1.149646   147A      1.167840  
     148A      1.189530   149A      1.205339   150A      1.224134  
     151A      1.226853   152A      1.241770   153A      1.258096  
     154A      1.268789   155A      1.276759   156A      1.288419  
     157A      1.290403   158A      1.300113   159A      1.309817  
     160A      1.324574   161A      1.342477   162A      1.358842  
     163A      1.372230   164A      1.391653   165A      1.394192  
     166A      1.403634   167A      1.419785   168A      1.433981  
     169A      1.438046   170A      1.440797   171A      1.467733  
     172A      1.474421   173A      1.499172   174A      1.508383  
     175A      1.513685   176A      1.527735   177A      1.543821  
     178A      1.544143   179A      1.558142   180A      1.566573  
     181A      1.595281   182A      1.601270   183A      1.617704  
     184A      1.627604   185A      1.632398   186A      1.659501  
     187A      1.661908   188A      1.684178   189A      1.704013  
     190A      1.739878   191A      1.759424   192A      1.766217  
     193A      1.775298   194A      1.806509   195A      1.820120  
     196A      1.825688   197A      1.890940   198A      1.947049  
     199A      1.948534   200A      1.961518   201A      1.973790  
     202A      1.994609   203A      2.012825   204A      2.029021  
     205A      2.054171   206A      2.061118   207A      2.067179  
     208A      2.108473   209A      2.114876   210A      2.144630  
     211A      2.149916   212A      2.161722   213A      2.165202  
     214A      2.180367   215A      2.211418   216A      2.264514  
     217A      2.282466   218A      2.293161   219A      2.328710  
     220A      2.358861   221A      2.362421   222A      2.369916  
     223A      2.412320   224A      2.423374   225A      2.427673  
     226A      2.444107   227A      2.469054   228A      2.481343  
     229A      2.511070   230A      2.514767   231A      2.522240  
     232A      2.540605   233A      2.556965   234A      2.569189  
     235A      2.575842   236A      2.593060   237A      2.611540  
     238A      2.617997   239A      2.635819   240A      2.653094  
     241A      2.681179   242A      2.681210   243A      2.702728  
     244A      2.718155   245A      2.721413   246A      2.753657  
     247A      2.768911   248A      2.849452   249A      2.898156  
     250A      2.899826   251A      2.908827   252A      2.933533  
     253A      2.936676   254A      2.985577   255A      3.024756  
     256A      3.030100   257A      3.043345   258A      3.104887  
     259A      3.124429   260A      3.161568   261A      3.190006  
     262A      3.224052   263A      3.238287   264A      3.262170  
     265A      3.359039   266A      3.395700   267A      3.401566  
     268A      3.427367   269A      3.449543   270A      3.490652  
     271A      3.542245   272A      3.583976   273A      3.647950  
     274A      3.650516   275A      3.680218   276A      3.685671  
     277A      3.692920   278A      3.778641   279A      3.795241  
     280A      3.823287   281A      3.833781   282A      3.841683  
     283A      3.919492   284A      3.943741   285A      3.983213  
     286A      4.014775   287A      4.038069   288A      4.045543  
     289A      4.070731   290A      4.095547   291A      4.101399  
     292A      4.108085   293A      4.130382   294A      4.164283  
     295A      4.171522   296A      4.206872   297A      4.213335  
     298A      4.244855   299A      4.245627   300A      4.263565  
     301A      4.305699   302A      4.328036   303A      4.328299  
     304A      4.346173   305A      4.362919   306A      4.376114  
     307A      4.419058   308A      4.421623   309A      4.448459  
     310A      4.486154   311A      4.509505   312A      4.535052  
     313A      4.570805   314A      4.585794   315A      4.603827  
     316A      4.632705   317A      4.666394   318A      4.756297  
     319A      4.758897   320A      4.770778   321A      4.792878  
     322A      4.801563   323A      4.823431   324A      4.831808  
     325A      4.888939   326A      4.892798   327A      4.894508  
     328A      4.916353   329A      4.934770   330A      4.940950  
     331A      5.006329   332A      5.019588   333A      5.058462  
     334A      5.100883   335A      5.128642   336A      5.169593  
     337A      5.191394   338A      5.193531   339A      5.209681  
     340A      5.228215   341A      5.240636   342A      5.279946  
     343A      5.329713   344A      5.336513   345A      5.373431  
     346A      5.397569   347A      5.471407   348A      5.507396  
     349A      5.519357   350A      5.542142   351A      5.568678  
     352A      5.581860   353A      5.602049   354A      5.627107  
     355A      5.663808   356A      5.722289   357A      5.735335  
     358A      5.772336   359A      5.778996   360A      5.808017  
     361A      5.828707   362A      5.940423   363A      5.965018  
     364A      6.066720   365A      6.098549   366A      6.144583  
     367A      6.146597   368A      6.149395   369A      6.227932  
     370A      6.263157   371A      6.302569   372A      6.369342  
     373A      6.420534   374A      6.514388   375A      6.574193  
     376A      6.653349   377A      6.691553   378A      6.719532  
     379A      6.761166   380A      6.831426   381A      6.859663  
     382A      6.897003   383A      6.899952   384A      6.951127  
     385A      7.025176   386A      7.065491   387A      7.151075  
     388A      7.173873   389A      7.231915   390A      7.270855  
     391A      7.281360   392A      7.389677   393A      7.397673  
     394A      7.415262   395A      7.494300   396A      7.506609  
     397A      7.551922   398A      7.595463   399A      7.653464  
     400A      7.690839   401A      7.720702   402A      7.815458  
     403A      7.880591   404A      7.960833   405A      8.053047  
     406A      8.145070   407A      8.302723   408A      8.621652  
     409A     15.081846   410A     16.148959   411A     17.182870  
     412A     17.601818   413A     18.265709   414A     18.989379  

    Final Occupation by Irrep:
              A 
    DOCC [    24 ]

  @DF-RHF Final Energy:  -338.00896112999345

   => Energetics <=

    Nuclear Repulsion Energy =            228.9146656964739748
    One-Electron Energy =                -916.2312185207596258
    Two-Electron Energy =                 349.3075916942921708
    Total Energy =                       -338.0089611299934518

Computation Completed


Properties will be evaluated at   0.000000,   0.000000,   0.000000 [a0]

Properties computed using the SCF density matrix

  Nuclear Dipole Moment: [e a0]
     X:     4.0497      Y:    -0.1531      Z:     0.0000

  Electronic Dipole Moment: [e a0]
     X:    -2.8745      Y:     0.2358      Z:    -0.0000

  Dipole Moment: [e a0]
     X:     1.1753      Y:     0.0827      Z:     0.0000     Total:     1.1782

  Dipole Moment: [D]
     X:     2.9873      Y:     0.2103      Z:     0.0000     Total:     2.9947


*** tstop() called on node54.bme.utexas.edu at Mon Sep  9 20:47:44 2019
Module time:
	user time   =      64.82 seconds =       1.08 minutes
	system time =       1.26 seconds =       0.02 minutes
	total time  =         18 seconds =       0.30 minutes
Total time:
	user time   =      64.82 seconds =       1.08 minutes
	system time =       1.26 seconds =       0.02 minutes
	total time  =         18 seconds =       0.30 minutes

  //>>>>>>>>>>>>>>>>>>>>>>>>>>>>>>>>>>>//
  //            Monomer A HF           //
  //<<<<<<<<<<<<<<<<<<<<<<<<<<<<<<<<<<<//


*** tstart() called on node54.bme.utexas.edu
*** at Mon Sep  9 20:47:44 2019

   => Loading Basis Set <=

    Name: AUG-CC-PVTZ
    Role: ORBITAL
    Keyword: BASIS
    atoms 1, 6              entry C          line   235 file /home/xy3866/psi4conda/share/psi4/basis/aug-cc-pvtz.gbs 
    atoms 2, 5, 7, 9, 11-12 entry H          line    36 file /home/xy3866/psi4conda/share/psi4/basis/aug-cc-pvtz.gbs 
    atoms 3-4               entry O          line   327 file /home/xy3866/psi4conda/share/psi4/basis/aug-cc-pvtz.gbs 
    atoms 8, 10             entry N          line   281 file /home/xy3866/psi4conda/share/psi4/basis/aug-cc-pvtz.gbs 


         ---------------------------------------------------------
                                   SCF
               by Justin Turney, Rob Parrish, Andy Simmonett
                          and Daniel G. A. Smith
                              RHF Reference
                        4 Threads,  30517 MiB Core
         ---------------------------------------------------------

  ==> Geometry <==

    Molecular point group: c1
    Full point group: C1

    Geometry (in Angstrom), charge = 0, multiplicity = 1:

       Center              X                  Y                   Z               Mass       
    ------------   -----------------  -----------------  -----------------  -----------------
         C           -2.015076623678     0.158854831583    -0.000001533938    12.000000000000
         H           -3.109561623678     0.160574831583    -0.000003533938     1.007825032230
         O           -1.366667623678     1.190861831583    -0.000001533938    15.994914619570
         O           -1.547459623678    -1.068197168417     0.000002466062    15.994914619570
         H           -0.528521623678    -1.067065168417     0.000009466062     1.007825032230
      Gh(C)           2.091552476322    -0.190371368417    -0.000002533938    12.000000000000
      Gh(H)           3.173368476322    -0.312596268417    -0.000004533938     1.007825032230
      Gh(N)           1.273761476322    -1.187738368417    -0.000000533938    14.003074004430
      Gh(H)           1.784356476322    -2.061243368417    -0.000000533938     1.007825032230
      Gh(N)           1.676702476322     1.086452631583     0.000002466062    14.003074004430
      Gh(H)           0.680685476322     1.284985631583     0.000001466062     1.007825032230
      Gh(H)           2.343622476322     1.831128631583     0.000004466062     1.007825032230

  Running in c1 symmetry.

  Rotational constants: A =      0.19051  B =      0.06460  C =      0.04824 [cm^-1]
  Rotational constants: A =   5711.23674  B =   1936.79099  C =   1446.31691 [MHz]
  Nuclear repulsion =   69.995387312911120

  Charge       = 0
  Multiplicity = 1
  Electrons    = 24
  Nalpha       = 12
  Nbeta        = 12

  ==> Algorithm <==

  SCF Algorithm Type is DF.
  DIIS enabled.
  MOM disabled.
  Fractional occupation disabled.
  Guess Type is SAD.
  Energy threshold   = 1.00e-08
  Density threshold  = 1.00e-08
  Integral threshold = 0.00e+00

  ==> Primary Basis <==

  Basis Set: AUG-CC-PVTZ
    Blend: AUG-CC-PVTZ
    Number of shells: 138
    Number of basis function: 414
    Number of Cartesian functions: 480
    Spherical Harmonics?: true
    Max angular momentum: 3

   => Loading Basis Set <=

    Name: (AUG-CC-PVTZ AUX)
    Role: JKFIT
    Keyword: DF_BASIS_SCF
    atoms 1, 6              entry C          line   162 file /home/xy3866/psi4conda/share/psi4/basis/aug-cc-pvtz-jkfit.gbs 
    atoms 2, 5, 7, 9, 11-12 entry H          line    70 file /home/xy3866/psi4conda/share/psi4/basis/aug-cc-pvtz-jkfit.gbs 
    atoms 3-4               entry O          line   286 file /home/xy3866/psi4conda/share/psi4/basis/aug-cc-pvtz-jkfit.gbs 
    atoms 8, 10             entry N          line   224 file /home/xy3866/psi4conda/share/psi4/basis/aug-cc-pvtz-jkfit.gbs 

  ==> Pre-Iterations <==

   -------------------------------------------------------
    Irrep   Nso     Nmo     Nalpha   Nbeta   Ndocc  Nsocc
   -------------------------------------------------------
     A        414     414       0       0       0       0
   -------------------------------------------------------
    Total     414     414      12      12      12       0
   -------------------------------------------------------

  ==> Integral Setup <==

  ==> DiskDFJK: Density-Fitted J/K Matrices <==

    J tasked:                  Yes
    K tasked:                  Yes
    wK tasked:                  No
    OpenMP threads:              4
    Integrals threads:           4
    Memory [MiB]:            22888
    Algorithm:                Core
    Integral Cache:           LOAD
    Schwarz Cutoff:          1E-12
    Fitting Condition:       1E-10

   => Auxiliary Basis Set <=

  Basis Set: (AUG-CC-PVTZ AUX)
    Blend: AUG-CC-PVTZ-JKFIT
    Number of shells: 264
    Number of basis function: 900
    Number of Cartesian functions: 1116
    Spherical Harmonics?: true
    Max angular momentum: 4

  Minimum eigenvalue in the overlap matrix is 2.5900168185E-05.
  Using Symmetric Orthogonalization.

  SCF Guess: Superposition of Atomic Densities via on-the-fly atomic UHF.

  ==> Iterations <==

                           Total Energy        Delta E     RMS |[F,P]|

   @DF-RHF iter SAD:  -187.97904343631649   -1.87979e+02   0.00000e+00 
   @DF-RHF iter   1:  -188.73107420058366   -7.52031e-01   1.26152e-03 DIIS
   @DF-RHF iter   2:  -188.79375990432106   -6.26857e-02   8.97766e-04 DIIS
   @DF-RHF iter   3:  -188.83715358231296   -4.33937e-02   1.07169e-04 DIIS
   @DF-RHF iter   4:  -188.83830086790863   -1.14729e-03   5.67284e-05 DIIS
   @DF-RHF iter   5:  -188.83859081876065   -2.89951e-04   1.37155e-05 DIIS
   @DF-RHF iter   6:  -188.83863302047584   -4.22017e-05   5.90936e-06 DIIS
   @DF-RHF iter   7:  -188.83864239974983   -9.37927e-06   2.13329e-06 DIIS
   @DF-RHF iter   8:  -188.83864350257051   -1.10282e-06   6.70732e-07 DIIS
   @DF-RHF iter   9:  -188.83864361368279   -1.11112e-07   1.93461e-07 DIIS
   @DF-RHF iter  10:  -188.83864362269156   -9.00877e-09   4.31049e-08 DIIS
   @DF-RHF iter  11:  -188.83864362307742   -3.85853e-10   7.44716e-09 DIIS
  Energy and wave function converged.


  ==> Post-Iterations <==

    Orbital Energies [Eh]
    ---------------------

    Doubly Occupied:                                                      

       1A    -20.639714     2A    -20.560505     3A    -11.395825  
       4A     -1.478626     5A     -1.367924     6A     -0.898066  
       7A     -0.730468     8A     -0.708500     9A     -0.643562  
      10A     -0.593102    11A     -0.490079    12A     -0.469583  

    Virtual:                                                              

      13A      0.019568    14A      0.033360    15A      0.038650  
      16A      0.050897    17A      0.065068    18A      0.068624  
      19A      0.071101    20A      0.083212    21A      0.084359  
      22A      0.107659    23A      0.111446    24A      0.120267  
      25A      0.126397    26A      0.134360    27A      0.136618  
      28A      0.137382    29A      0.145246    30A      0.157792  
      31A      0.172411    32A      0.181432    33A      0.194607  
      34A      0.195387    35A      0.198940    36A      0.212496  
      37A      0.223677    38A      0.242799    39A      0.249091  
      40A      0.258665    41A      0.269015    42A      0.273624  
      43A      0.278589    44A      0.290141    45A      0.293515  
      46A      0.303763    47A      0.309236    48A      0.316390  
      49A      0.324844    50A      0.336055    51A      0.341565  
      52A      0.346924    53A      0.348485    54A      0.357571  
      55A      0.365792    56A      0.370030    57A      0.370567  
      58A      0.388943    59A      0.406833    60A      0.415170  
      61A      0.419056    62A      0.426553    63A      0.428609  
      64A      0.431938    65A      0.444432    66A      0.456202  
      67A      0.461497    68A      0.477087    69A      0.477496  
      70A      0.503945    71A      0.513790    72A      0.526773  
      73A      0.543537    74A      0.544952    75A      0.565734  
      76A      0.569346    77A      0.586262    78A      0.601002  
      79A      0.613474    80A      0.621564    81A      0.634988  
      82A      0.649263    83A      0.655864    84A      0.678622  
      85A      0.686921    86A      0.690438    87A      0.716670  
      88A      0.729007    89A      0.732495    90A      0.753844  
      91A      0.759593    92A      0.767544    93A      0.771779  
      94A      0.783772    95A      0.792512    96A      0.801650  
      97A      0.809229    98A      0.815349    99A      0.825782  
     100A      0.847024   101A      0.849583   102A      0.852557  
     103A      0.879588   104A      0.881934   105A      0.883936  
     106A      0.899502   107A      0.902518   108A      0.909658  
     109A      0.916528   110A      0.926180   111A      0.935941  
     112A      0.955209   113A      0.963851   114A      0.964967  
     115A      0.976178   116A      0.986866   117A      0.988370  
     118A      1.017838   119A      1.020896   120A      1.034364  
     121A      1.035098   122A      1.050343   123A      1.061400  
     124A      1.072029   125A      1.080819   126A      1.081017  
     127A      1.103398   128A      1.105651   129A      1.121109  
     130A      1.129870   131A      1.149827   132A      1.160472  
     133A      1.162816   134A      1.167714   135A      1.212227  
     136A      1.219182   137A      1.229742   138A      1.236414  
     139A      1.247794   140A      1.269728   141A      1.280579  
     142A      1.282620   143A      1.294740   144A      1.308752  
     145A      1.320309   146A      1.335484   147A      1.376702  
     148A      1.382303   149A      1.395175   150A      1.414233  
     151A      1.420161   152A      1.457471   153A      1.467614  
     154A      1.475187   155A      1.491292   156A      1.498406  
     157A      1.509744   158A      1.514842   159A      1.521330  
     160A      1.535800   161A      1.539654   162A      1.591389  
     163A      1.592123   164A      1.602088   165A      1.607206  
     166A      1.614072   167A      1.627449   168A      1.645978  
     169A      1.649639   170A      1.655285   171A      1.676608  
     172A      1.702806   173A      1.706957   174A      1.714966  
     175A      1.718169   176A      1.724023   177A      1.729783  
     178A      1.736673   179A      1.757837   180A      1.769044  
     181A      1.773281   182A      1.793974   183A      1.794092  
     184A      1.818361   185A      1.839849   186A      1.888774  
     187A      1.901296   188A      1.922481   189A      1.975016  
     190A      1.978747   191A      2.028770   192A      2.048500  
     193A      2.062046   194A      2.073416   195A      2.083134  
     196A      2.088475   197A      2.142625   198A      2.178965  
     199A      2.189727   200A      2.201656   201A      2.242698  
     202A      2.270498   203A      2.291117   204A      2.329687  
     205A      2.331787   206A      2.353290   207A      2.354716  
     208A      2.390838   209A      2.406836   210A      2.412568  
     211A      2.427199   212A      2.449595   213A      2.492293  
     214A      2.498354   215A      2.520264   216A      2.523629  
     217A      2.534044   218A      2.534188   219A      2.569553  
     220A      2.579472   221A      2.584853   222A      2.603987  
     223A      2.612926   224A      2.618611   225A      2.668598  
     226A      2.698072   227A      2.700356   228A      2.721404  
     229A      2.725105   230A      2.731860   231A      2.760069  
     232A      2.798744   233A      2.812562   234A      2.848872  
     235A      2.863267   236A      2.896817   237A      2.900890  
     238A      2.922770   239A      2.968541   240A      2.975831  
     241A      2.986827   242A      3.011076   243A      3.011296  
     244A      3.034394   245A      3.054964   246A      3.089884  
     247A      3.114657   248A      3.143967   249A      3.152865  
     250A      3.206263   251A      3.210226   252A      3.235951  
     253A      3.252663   254A      3.300503   255A      3.369491  
     256A      3.401574   257A      3.424478   258A      3.442347  
     259A      3.503039   260A      3.516732   261A      3.602929  
     262A      3.633488   263A      3.638955   264A      3.653652  
     265A      3.703087   266A      3.803362   267A      3.829515  
     268A      3.877906   269A      3.941173   270A      4.006815  
     271A      4.010918   272A      4.070986   273A      4.088344  
     274A      4.093833   275A      4.145985   276A      4.169014  
     277A      4.199657   278A      4.206915   279A      4.235759  
     280A      4.285671   281A      4.381888   282A      4.396958  
     283A      4.412326   284A      4.418850   285A      4.432774  
     286A      4.463853   287A      4.471559   288A      4.485682  
     289A      4.563341   290A      4.585739   291A      4.613366  
     292A      4.651257   293A      4.654039   294A      4.732435  
     295A      4.741355   296A      4.759451   297A      4.782428  
     298A      4.786184   299A      4.807333   300A      4.853122  
     301A      4.871678   302A      4.881052   303A      4.896390  
     304A      4.912956   305A      4.960081   306A      4.963430  
     307A      4.980030   308A      4.996798   309A      5.030669  
     310A      5.037514   311A      5.050492   312A      5.151873  
     313A      5.174929   314A      5.187502   315A      5.188106  
     316A      5.209061   317A      5.284838   318A      5.293416  
     319A      5.317715   320A      5.331529   321A      5.334775  
     322A      5.351428   323A      5.355202   324A      5.367177  
     325A      5.423681   326A      5.444997   327A      5.445677  
     328A      5.482249   329A      5.501024   330A      5.652357  
     331A      5.683354   332A      5.746195   333A      5.767255  
     334A      5.827496   335A      5.883932   336A      5.936879  
     337A      6.022497   338A      6.046736   339A      6.082761  
     340A      6.148876   341A      6.188082   342A      6.241733  
     343A      6.302388   344A      6.306278   345A      6.344861  
     346A      6.430107   347A      6.445580   348A      6.449902  
     349A      6.536095   350A      6.573425   351A      6.582367  
     352A      6.632455   353A      6.640129   354A      6.711600  
     355A      6.727867   356A      6.794719   357A      6.822032  
     358A      6.828014   359A      6.856980   360A      6.879884  
     361A      6.897480   362A      6.924678   363A      7.057067  
     364A      7.058204   365A      7.138228   366A      7.157001  
     367A      7.186964   368A      7.244458   369A      7.249680  
     370A      7.259732   371A      7.332134   372A      7.349384  
     373A      7.392146   374A      7.416815   375A      7.424708  
     376A      7.499812   377A      7.572742   378A      7.585486  
     379A      7.590026   380A      7.645820   381A      7.656395  
     382A      7.670529   383A      7.692834   384A      7.714846  
     385A      7.759473   386A      7.851514   387A      7.905514  
     388A      7.933091   389A      8.021548   390A      8.067801  
     391A      8.188713   392A      8.239960   393A      8.302628  
     394A      8.478802   395A      8.587157   396A      8.652529  
     397A      9.016577   398A      9.289990   399A      9.385707  
     400A      9.440821   401A      9.496299   402A     10.168778  
     403A     10.756209   404A     11.194381   405A     11.655288  
     406A     11.700112   407A     12.080070   408A     12.873660  
     409A     15.109233   410A     16.136583   411A     18.239232  
     412A     51.669307   413A     59.420868   414A     62.526996  

    Final Occupation by Irrep:
              A 
    DOCC [    12 ]

  @DF-RHF Final Energy:  -188.83864362307742

   => Energetics <=

    Nuclear Repulsion Energy =             69.9953873129111201
    One-Electron Energy =                -397.7161487134255253
    Two-Electron Energy =                 138.8821177774369744
    Total Energy =                       -188.8386436230774166

Computation Completed


Properties will be evaluated at   0.000000,   0.000000,   0.000000 [a0]

Properties computed using the SCF density matrix

  Nuclear Dipole Moment: [e a0]
     X:   -73.7779      Y:     1.9426      Z:     0.0000

  Electronic Dipole Moment: [e a0]
     X:    73.6700      Y:    -2.7740      Z:    -0.0000

  Dipole Moment: [e a0]
     X:    -0.1078      Y:    -0.8315      Z:     0.0000     Total:     0.8384

  Dipole Moment: [D]
     X:    -0.2741      Y:    -2.1134      Z:     0.0000     Total:     2.1311


*** tstop() called on node54.bme.utexas.edu at Mon Sep  9 20:47:53 2019
Module time:
	user time   =      33.60 seconds =       0.56 minutes
	system time =       0.71 seconds =       0.01 minutes
	total time  =          9 seconds =       0.15 minutes
Total time:
	user time   =      98.44 seconds =       1.64 minutes
	system time =       1.97 seconds =       0.03 minutes
	total time  =         27 seconds =       0.45 minutes

  //>>>>>>>>>>>>>>>>>>>>>>>>>>>>>>>>>>>//
  //            Monomer B HF           //
  //<<<<<<<<<<<<<<<<<<<<<<<<<<<<<<<<<<<//


*** tstart() called on node54.bme.utexas.edu
*** at Mon Sep  9 20:47:53 2019

   => Loading Basis Set <=

    Name: AUG-CC-PVTZ
    Role: ORBITAL
    Keyword: BASIS
    atoms 1, 6              entry C          line   235 file /home/xy3866/psi4conda/share/psi4/basis/aug-cc-pvtz.gbs 
    atoms 2, 5, 7, 9, 11-12 entry H          line    36 file /home/xy3866/psi4conda/share/psi4/basis/aug-cc-pvtz.gbs 
    atoms 3-4               entry O          line   327 file /home/xy3866/psi4conda/share/psi4/basis/aug-cc-pvtz.gbs 
    atoms 8, 10             entry N          line   281 file /home/xy3866/psi4conda/share/psi4/basis/aug-cc-pvtz.gbs 


         ---------------------------------------------------------
                                   SCF
               by Justin Turney, Rob Parrish, Andy Simmonett
                          and Daniel G. A. Smith
                              RHF Reference
                        4 Threads,  30517 MiB Core
         ---------------------------------------------------------

  ==> Geometry <==

    Molecular point group: c1
    Full point group: C1

    Geometry (in Angstrom), charge = 0, multiplicity = 1:

       Center              X                  Y                   Z               Mass       
    ------------   -----------------  -----------------  -----------------  -----------------
      Gh(C)          -2.015076623678     0.158854831583    -0.000001533938    12.000000000000
      Gh(H)          -3.109561623678     0.160574831583    -0.000003533938     1.007825032230
      Gh(O)          -1.366667623678     1.190861831583    -0.000001533938    15.994914619570
      Gh(O)          -1.547459623678    -1.068197168417     0.000002466062    15.994914619570
      Gh(H)          -0.528521623678    -1.067065168417     0.000009466062     1.007825032230
         C            2.091552476322    -0.190371368417    -0.000002533938    12.000000000000
         H            3.173368476322    -0.312596268417    -0.000004533938     1.007825032230
         N            1.273761476322    -1.187738368417    -0.000000533938    14.003074004430
         H            1.784356476322    -2.061243368417    -0.000000533938     1.007825032230
         N            1.676702476322     1.086452631583     0.000002466062    14.003074004430
         H            0.680685476322     1.284985631583     0.000001466062     1.007825032230
         H            2.343622476322     1.831128631583     0.000004466062     1.007825032230

  Running in c1 symmetry.

  Rotational constants: A =      0.19051  B =      0.06460  C =      0.04824 [cm^-1]
  Rotational constants: A =   5711.23674  B =   1936.79099  C =   1446.31691 [MHz]
  Nuclear repulsion =   72.334192857909215

  Charge       = 0
  Multiplicity = 1
  Electrons    = 24
  Nalpha       = 12
  Nbeta        = 12

  ==> Algorithm <==

  SCF Algorithm Type is DF.
  DIIS enabled.
  MOM disabled.
  Fractional occupation disabled.
  Guess Type is SAD.
  Energy threshold   = 1.00e-08
  Density threshold  = 1.00e-08
  Integral threshold = 0.00e+00

  ==> Primary Basis <==

  Basis Set: AUG-CC-PVTZ
    Blend: AUG-CC-PVTZ
    Number of shells: 138
    Number of basis function: 414
    Number of Cartesian functions: 480
    Spherical Harmonics?: true
    Max angular momentum: 3

   => Loading Basis Set <=

    Name: (AUG-CC-PVTZ AUX)
    Role: JKFIT
    Keyword: DF_BASIS_SCF
    atoms 1, 6              entry C          line   162 file /home/xy3866/psi4conda/share/psi4/basis/aug-cc-pvtz-jkfit.gbs 
    atoms 2, 5, 7, 9, 11-12 entry H          line    70 file /home/xy3866/psi4conda/share/psi4/basis/aug-cc-pvtz-jkfit.gbs 
    atoms 3-4               entry O          line   286 file /home/xy3866/psi4conda/share/psi4/basis/aug-cc-pvtz-jkfit.gbs 
    atoms 8, 10             entry N          line   224 file /home/xy3866/psi4conda/share/psi4/basis/aug-cc-pvtz-jkfit.gbs 

  ==> Pre-Iterations <==

   -------------------------------------------------------
    Irrep   Nso     Nmo     Nalpha   Nbeta   Ndocc  Nsocc
   -------------------------------------------------------
     A        414     414       0       0       0       0
   -------------------------------------------------------
    Total     414     414      12      12      12       0
   -------------------------------------------------------

  ==> Integral Setup <==

  ==> DiskDFJK: Density-Fitted J/K Matrices <==

    J tasked:                  Yes
    K tasked:                  Yes
    wK tasked:                  No
    OpenMP threads:              4
    Integrals threads:           4
    Memory [MiB]:            22888
    Algorithm:                Core
    Integral Cache:           LOAD
    Schwarz Cutoff:          1E-12
    Fitting Condition:       1E-10

   => Auxiliary Basis Set <=

  Basis Set: (AUG-CC-PVTZ AUX)
    Blend: AUG-CC-PVTZ-JKFIT
    Number of shells: 264
    Number of basis function: 900
    Number of Cartesian functions: 1116
    Spherical Harmonics?: true
    Max angular momentum: 4

  Minimum eigenvalue in the overlap matrix is 2.5900168185E-05.
  Using Symmetric Orthogonalization.

  SCF Guess: Superposition of Atomic Densities via on-the-fly atomic UHF.

  ==> Iterations <==

                           Total Energy        Delta E     RMS |[F,P]|

   @DF-RHF iter SAD:  -148.39929836332291   -1.48399e+02   0.00000e+00 
   @DF-RHF iter   1:  -148.99805869938606   -5.98760e-01   1.32806e-03 DIIS
   @DF-RHF iter   2:  -149.10015107404524   -1.02092e-01   7.81629e-04 DIIS
   @DF-RHF iter   3:  -149.14197241318027   -4.18213e-02   1.09332e-04 DIIS
   @DF-RHF iter   4:  -149.14338357664653   -1.41116e-03   5.40701e-05 DIIS
   @DF-RHF iter   5:  -149.14366061107026   -2.77034e-04   9.80307e-06 DIIS
   @DF-RHF iter   6:  -149.14368905529125   -2.84442e-05   4.60268e-06 DIIS
   @DF-RHF iter   7:  -149.14369370188689   -4.64660e-06   1.85512e-06 DIIS
   @DF-RHF iter   8:  -149.14369462183421   -9.19947e-07   5.49329e-07 DIIS
   @DF-RHF iter   9:  -149.14369470654924   -8.47150e-08   1.68558e-07 DIIS
   @DF-RHF iter  10:  -149.14369471404200   -7.49276e-09   4.17601e-08 DIIS
   @DF-RHF iter  11:  -149.14369471450982   -4.67821e-10   7.94249e-09 DIIS
  Energy and wave function converged.


  ==> Post-Iterations <==

    Orbital Energies [Eh]
    ---------------------

    Doubly Occupied:                                                      

       1A    -15.580681     2A    -15.518367     3A    -11.313915  
       4A     -1.260956     5A     -1.136089     6A     -0.830613  
       7A     -0.749116     8A     -0.640568     9A     -0.618120  
      10A     -0.530872    11A     -0.417500    12A     -0.358862  

    Virtual:                                                              

      13A      0.022751    14A      0.031864    15A      0.037753  
      16A      0.052316    17A      0.062137    18A      0.073551  
      19A      0.074563    20A      0.088979    21A      0.098811  
      22A      0.109464    23A      0.115140    24A      0.120115  
      25A      0.131665    26A      0.135050    27A      0.141645  
      28A      0.152056    29A      0.153567    30A      0.163562  
      31A      0.177341    32A      0.186264    33A      0.192095  
      34A      0.208128    35A      0.208349    36A      0.218399  
      37A      0.227240    38A      0.228559    39A      0.248451  
      40A      0.258896    41A      0.261995    42A      0.271816  
      43A      0.281747    44A      0.283776    45A      0.301907  
      46A      0.309646    47A      0.315177    48A      0.318371  
      49A      0.324422    50A      0.333364    51A      0.338452  
      52A      0.349841    53A      0.361847    54A      0.371652  
      55A      0.375955    56A      0.384933    57A      0.397676  
      58A      0.405206    59A      0.410392    60A      0.421824  
      61A      0.423044    62A      0.432218    63A      0.433423  
      64A      0.452120    65A      0.460223    66A      0.463829  
      67A      0.481904    68A      0.485493    69A      0.509823  
      70A      0.512399    71A      0.516638    72A      0.523494  
      73A      0.526472    74A      0.542312    75A      0.554532  
      76A      0.560143    77A      0.578754    78A      0.587735  
      79A      0.600449    80A      0.641378    81A      0.651684  
      82A      0.656567    83A      0.661172    84A      0.666952  
      85A      0.675413    86A      0.687324    87A      0.691750  
      88A      0.704873    89A      0.715306    90A      0.721282  
      91A      0.733108    92A      0.738717    93A      0.765123  
      94A      0.780032    95A      0.801620    96A      0.826829  
      97A      0.836704    98A      0.853862    99A      0.856999  
     100A      0.858472   101A      0.869634   102A      0.896638  
     103A      0.897179   104A      0.911609   105A      0.919486  
     106A      0.920648   107A      0.929239   108A      0.929661  
     109A      0.931978   110A      0.945759   111A      0.962257  
     112A      0.975962   113A      0.978950   114A      0.991347  
     115A      0.993875   116A      1.001166   117A      1.008289  
     118A      1.024900   119A      1.027486   120A      1.028331  
     121A      1.035523   122A      1.041025   123A      1.051514  
     124A      1.072432   125A      1.076592   126A      1.086364  
     127A      1.087235   128A      1.107178   129A      1.109388  
     130A      1.113002   131A      1.121818   132A      1.122769  
     133A      1.139233   134A      1.151078   135A      1.176169  
     136A      1.191604   137A      1.193453   138A      1.226124  
     139A      1.242409   140A      1.257405   141A      1.263898  
     142A      1.275530   143A      1.290196   144A      1.294479  
     145A      1.298124   146A      1.333587   147A      1.335679  
     148A      1.348757   149A      1.361061   150A      1.382287  
     151A      1.394293   152A      1.406931   153A      1.426065  
     154A      1.426142   155A      1.437512   156A      1.446602  
     157A      1.458355   158A      1.470680   159A      1.484485  
     160A      1.495671   161A      1.517613   162A      1.541948  
     163A      1.549892   164A      1.563086   165A      1.591473  
     166A      1.592628   167A      1.609691   168A      1.620300  
     169A      1.655432   170A      1.681741   171A      1.689590  
     172A      1.713440   173A      1.726751   174A      1.731538  
     175A      1.764893   176A      1.789746   177A      1.805445  
     178A      1.830649   179A      1.830860   180A      1.834988  
     181A      1.872200   182A      1.876597   183A      1.889127  
     184A      1.894105   185A      1.927681   186A      1.953027  
     187A      1.960254   188A      1.971620   189A      2.007256  
     190A      2.007851   191A      2.015682   192A      2.036073  
     193A      2.064252   194A      2.083811   195A      2.090499  
     196A      2.102586   197A      2.128495   198A      2.132138  
     199A      2.144098   200A      2.178241   201A      2.182647  
     202A      2.201925   203A      2.239358   204A      2.273440  
     205A      2.278580   206A      2.337008   207A      2.339487  
     208A      2.370012   209A      2.395885   210A      2.405814  
     211A      2.412702   212A      2.449327   213A      2.466287  
     214A      2.475820   215A      2.510734   216A      2.539891  
     217A      2.559710   218A      2.570809   219A      2.601039  
     220A      2.607272   221A      2.637141   222A      2.640782  
     223A      2.644203   224A      2.669195   225A      2.671550  
     226A      2.703770   227A      2.711693   228A      2.746850  
     229A      2.764756   230A      2.776764   231A      2.779500  
     232A      2.801193   233A      2.822369   234A      2.844704  
     235A      2.845354   236A      2.869507   237A      2.882559  
     238A      2.934211   239A      2.946358   240A      2.957679  
     241A      3.060899   242A      3.071750   243A      3.120856  
     244A      3.120871   245A      3.156099   246A      3.185479  
     247A      3.245981   248A      3.270510   249A      3.342072  
     250A      3.376102   251A      3.391145   252A      3.425045  
     253A      3.443581   254A      3.465247   255A      3.506608  
     256A      3.553434   257A      3.561539   258A      3.598698  
     259A      3.601448   260A      3.640491   261A      3.644272  
     262A      3.696326   263A      3.716296   264A      3.784309  
     265A      3.826783   266A      3.847096   267A      3.848837  
     268A      3.879778   269A      3.893398   270A      3.948577  
     271A      3.963398   272A      4.022421   273A      4.050214  
     274A      4.074538   275A      4.080452   276A      4.086388  
     277A      4.114623   278A      4.126507   279A      4.134407  
     280A      4.170400   281A      4.181042   282A      4.199182  
     283A      4.235621   284A      4.250648   285A      4.292014  
     286A      4.313343   287A      4.334058   288A      4.350005  
     289A      4.374178   290A      4.398272   291A      4.441700  
     292A      4.490280   293A      4.560314   294A      4.576612  
     295A      4.586570   296A      4.608161   297A      4.630398  
     298A      4.662289   299A      4.709300   300A      4.735810  
     301A      4.750988   302A      4.768202   303A      4.794358  
     304A      4.801632   305A      4.809577   306A      4.851353  
     307A      4.871537   308A      4.892017   309A      4.919401  
     310A      4.932055   311A      4.947633   312A      4.950056  
     313A      5.000768   314A      5.001093   315A      5.066451  
     316A      5.068868   317A      5.087715   318A      5.108379  
     319A      5.139690   320A      5.192946   321A      5.212113  
     322A      5.226454   323A      5.233469   324A      5.275023  
     325A      5.296670   326A      5.308265   327A      5.374979  
     328A      5.393935   329A      5.438992   330A      5.466685  
     331A      5.469919   332A      5.508007   333A      5.520099  
     334A      5.531008   335A      5.551599   336A      5.586914  
     337A      5.622602   338A      5.633463   339A      5.651749  
     340A      5.695956   341A      5.749410   342A      5.750030  
     343A      5.794555   344A      5.799516   345A      5.854190  
     346A      5.885684   347A      5.926325   348A      5.972650  
     349A      5.993161   350A      6.020216   351A      6.115461  
     352A      6.153303   353A      6.159068   354A      6.184887  
     355A      6.201525   356A      6.273614   357A      6.333040  
     358A      6.475532   359A      6.537143   360A      6.555503  
     361A      6.603554   362A      6.696828   363A      6.746170  
     364A      6.749517   365A      6.888537   366A      6.986272  
     367A      7.032109   368A      7.164549   369A      7.210572  
     370A      7.428418   371A      7.490844   372A      7.557765  
     373A      7.658486   374A      7.684897   375A      7.748796  
     376A      7.771651   377A      7.835227   378A      7.836188  
     379A      7.886351   380A      8.062370   381A      8.080313  
     382A      8.098236   383A      8.196604   384A      8.273629  
     385A      8.295755   386A      8.463937   387A      8.754143  
     388A      8.889571   389A      9.159142   390A      9.754756  
     391A      9.843962   392A      9.876367   393A      9.998701  
     394A      9.999641   395A     10.083909   396A     10.348850  
     397A     10.369403   398A     10.452566   399A     10.924924  
     400A     11.138283   401A     11.830740   402A     11.871879  
     403A     11.880290   404A     12.496578   405A     12.935658  
     406A     13.415623   407A     14.032206   408A     14.393039  
     409A     17.201361   410A     17.606821   411A     18.987142  
     412A     51.403189   413A     64.233246   414A     67.896488  

    Final Occupation by Irrep:
              A 
    DOCC [    12 ]

  @DF-RHF Final Energy:  -149.14369471450982

   => Energetics <=

    Nuclear Repulsion Energy =             72.3341928579092155
    One-Electron Energy =                -345.0444560604041158
    Two-Electron Energy =                 123.5665684879850801
    Total Energy =                       -149.1436947145098202

Computation Completed


Properties will be evaluated at   0.000000,   0.000000,   0.000000 [a0]

Properties computed using the SCF density matrix

  Nuclear Dipole Moment: [e a0]
     X:    77.8276      Y:    -2.0956      Z:    -0.0000

  Electronic Dipole Moment: [e a0]
     X:   -76.9142      Y:     2.9852      Z:     0.0000

  Dipole Moment: [e a0]
     X:     0.9134      Y:     0.8896      Z:    -0.0000     Total:     1.2750

  Dipole Moment: [D]
     X:     2.3217      Y:     2.2610      Z:    -0.0000     Total:     3.2408


*** tstop() called on node54.bme.utexas.edu at Mon Sep  9 20:48:03 2019
Module time:
	user time   =      33.63 seconds =       0.56 minutes
	system time =       0.67 seconds =       0.01 minutes
	total time  =         10 seconds =       0.17 minutes
Total time:
	user time   =     132.09 seconds =       2.20 minutes
	system time =       2.64 seconds =       0.04 minutes
	total time  =         37 seconds =       0.62 minutes
  Constructing Basis Sets for SAPT...

   => Loading Basis Set <=

    Name: (AUG-CC-PVTZ AUX)
    Role: RIFIT
    Keyword: DF_BASIS_SAPT
    atoms 1, 6              entry C          line   148 file /home/xy3866/psi4conda/share/psi4/basis/aug-cc-pvtz-ri.gbs 
    atoms 2, 5, 7, 9, 11-12 entry H          line    30 file /home/xy3866/psi4conda/share/psi4/basis/aug-cc-pvtz-ri.gbs 
    atoms 3-4               entry O          line   264 file /home/xy3866/psi4conda/share/psi4/basis/aug-cc-pvtz-ri.gbs 
    atoms 8, 10             entry N          line   206 file /home/xy3866/psi4conda/share/psi4/basis/aug-cc-pvtz-ri.gbs 


  //>>>>>>>>>>>>>>>>>>>>>>>>>>>>>>>>>>>//
  //               SAPT2+              //
  //<<<<<<<<<<<<<<<<<<<<<<<<<<<<<<<<<<<//


*** tstart() called on node54.bme.utexas.edu
*** at Mon Sep  9 20:48:03 2019

        SAPT2+  
    Ed Hohenstein
     6 June 2009

      Orbital Information
  --------------------------
    NSO        =       414
    NMO        =       414
    NRI        =       912
    NOCC A     =        12
    NOCC B     =        12
    FOCC A     =         3
    FOCC B     =         3
    NVIR A     =       402
    NVIR B     =       402

    Estimated memory usage: 1737.6 MB

    Natural Orbital Cutoff:   1.000E-06
    Disp(T3) Truncation:            Yes
    CCD (vv|vv) Truncation:         Yes
    MBPT T2 Truncation:             Yes

    Monomer A: 237 virtual orbitals dropped
    Monomer B: 201 virtual orbitals dropped

    Elst10,r            =    -0.044153475918 [Eh]
    Exch10 (S^2)        =     0.036120551271 [Eh]
    Exch10              =     0.036724032908 [Eh]
    Ind20,r (A<-B)      =    -0.006450049517 [Eh]
    Ind20,r (B<-A)      =    -0.015845838064 [Eh]
    Ind20,r             =    -0.022295887581 [Eh]
    Exch-Ind20,r (A<-B) =     0.002920684155 [Eh]
    Exch-Ind20,r (B<-A) =     0.008224363792 [Eh]
    Exch-Ind20,r        =     0.011145047947 [Eh]
    Disp20              =    -0.013437657601 [Eh]
    Disp20 (NO)         =    -0.011757612418 [Eh]
    Exch-Disp20         =     0.002603530207 [Eh]
    Elst12,r            =     0.001456309705 [Eh]
    Exch11              =     0.000474202561 [Eh]
    Exch12              =     0.004349111951 [Eh]
    Ind22               =    -0.002403298948 [Eh]
    Disp21              =     0.000990971978 [Eh]
    Disp22 (SDQ)        =    -0.000162699620 [Eh]

    (i =   1 of   9)         21 seconds
    (i =   2 of   9)         41 seconds
    (i =   3 of   9)         61 seconds
    (i =   4 of   9)         81 seconds
    (i =   5 of   9)        102 seconds
    (i =   6 of   9)        122 seconds
    (i =   7 of   9)        143 seconds
    (i =   8 of   9)        163 seconds
    (i =   9 of   9)        184 seconds

    Disp220 (T)         =    -0.001225703123 [Eh]

    (i =   1 of   9)         26 seconds
    (i =   2 of   9)         52 seconds
    (i =   3 of   9)         78 seconds
    (i =   4 of   9)        104 seconds
    (i =   5 of   9)        130 seconds
    (i =   6 of   9)        156 seconds
    (i =   7 of   9)        182 seconds
    (i =   8 of   9)        208 seconds
    (i =   9 of   9)        233 seconds

    Disp202 (T)         =    -0.001015502042 [Eh]

    Disp22 (T)          =    -0.002241205165 [Eh]

    Est. Disp220 (T)    =    -0.001400843837 [Eh]
    Est. Disp202 (T)    =    -0.001160607124 [Eh]

    Est. Disp22 (T)     =    -0.002561450961 [Eh]

    SAPT Results 
  --------------------------------------------------------------------------------------------------------
    Electrostatics                -42.69716621 [mEh]     -26.79287630 [kcal/mol]    -112.10139445 [kJ/mol]
      Elst10,r                    -44.15347592 [mEh]     -27.70672444 [kcal/mol]    -115.92493505 [kJ/mol]
      Elst12,r                      1.45630971 [mEh]       0.91384814 [kcal/mol]       3.82354060 [kJ/mol]

    Exchange                       41.54734742 [mEh]      26.07135412 [kcal/mol]     109.08254562 [kJ/mol]
      Exch10                       36.72403291 [mEh]      23.04467856 [kcal/mol]      96.41893512 [kJ/mol]
      Exch10(S^2)                  36.12055127 [mEh]      22.66598812 [kcal/mol]      94.83449430 [kJ/mol]
      Exch11(S^2)                   0.47420256 [mEh]       0.29756660 [kcal/mol]       1.24501865 [kJ/mol]
      Exch12(S^2)                   4.34911195 [mEh]       2.72910895 [kcal/mol]      11.41859186 [kJ/mol]

    Induction                     -20.39531102 [mEh]     -12.79825088 [kcal/mol]     -53.54788170 [kJ/mol]
      Ind20,r                     -22.29588758 [mEh]     -13.99088068 [kcal/mol]     -58.53784478 [kJ/mol]
      Ind22                        -2.40329895 [mEh]      -1.50809286 [kcal/mol]      -6.30986052 [kJ/mol]
      Exch-Ind20,r                 11.14504795 [mEh]       6.99362317 [kcal/mol]      29.26131935 [kJ/mol]
      Exch-Ind22                    1.20133733 [mEh]       0.75385055 [kcal/mol]       3.15411072 [kJ/mol]
      delta HF,r (2)               -8.04250976 [mEh]      -5.04675107 [kcal/mol]     -21.11560647 [kJ/mol]

    Dispersion                    -12.56730600 [mEh]      -7.88610357 [kcal/mol]     -32.99545735 [kJ/mol]
      Disp20                      -13.43765760 [mEh]      -8.43225745 [kcal/mol]     -35.28056517 [kJ/mol]
      Disp21                        0.99097198 [mEh]       0.62184430 [kcal/mol]       2.60179657 [kJ/mol]
      Disp22 (SDQ)                 -0.16269962 [mEh]      -0.10209555 [kcal/mol]      -0.42716779 [kJ/mol]
      Disp22 (T)                   -2.24120517 [mEh]      -1.40637747 [kcal/mol]      -5.88428335 [kJ/mol]
      Est. Disp22 (T)              -2.56145096 [mEh]      -1.60733474 [kcal/mol]      -6.72508857 [kJ/mol]
      Exch-Disp20                   2.60353021 [mEh]       1.63373987 [kcal/mol]       6.83556762 [kJ/mol]

  Total HF                        -26.62279241 [mEh]     -16.70605445 [kcal/mol]     -69.89813183 [kJ/mol]
  Total SAPT0                     -37.45691980 [mEh]     -23.50457203 [kcal/mol]     -98.34312939 [kJ/mol]
  Total SAPT2                     -32.37925720 [mEh]     -20.31829065 [kcal/mol]     -85.01172807 [kJ/mol]
  Total SAPT2+                    -34.11243581 [mEh]     -21.40587664 [kcal/mol]     -89.56218787 [kJ/mol]

  Special recipe for scaled SAPT0 (see Manual):
    Electrostatics sSAPT0         -44.15347592 [mEh]     -27.70672444 [kcal/mol]    -115.92493505 [kJ/mol]
    Exchange sSAPT0                36.72403291 [mEh]      23.04467856 [kcal/mol]      96.41893512 [kJ/mol]
    Induction sSAPT0              -18.62534901 [mEh]     -11.68758296 [kcal/mol]     -48.90084710 [kJ/mol]
    Dispersion sSAPT0             -10.70144011 [mEh]      -6.71525505 [kcal/mol]     -28.09662714 [kJ/mol]
  Total sSAPT0                    -36.75623213 [mEh]     -23.06488388 [kcal/mol]     -96.50347417 [kJ/mol]
  --------------------------------------------------------------------------------------------------------

*** tstop() called on node54.bme.utexas.edu at Mon Sep  9 20:58:56 2019
Module time:
	user time   =    2345.94 seconds =      39.10 minutes
	system time =      43.74 seconds =       0.73 minutes
	total time  =        653 seconds =      10.88 minutes
Total time:
	user time   =    2478.39 seconds =      41.31 minutes
	system time =      46.39 seconds =       0.77 minutes
	total time  =        690 seconds =      11.50 minutes

    Psi4 stopped on: Monday, 09 September 2019 08:58PM
    Psi4 wall time for execution: 0:11:30.68

*** Psi4 exiting successfully. Buy a developer a beer!
