
    -----------------------------------------------------------------------
          Psi4: An Open-Source Ab Initio Electronic Structure Package
                               Psi4 1.3.2 release

                         Git: Rev {HEAD} ecbda83 


    R. M. Parrish, L. A. Burns, D. G. A. Smith, A. C. Simmonett,
    A. E. DePrince III, E. G. Hohenstein, U. Bozkaya, A. Yu. Sokolov,
    R. Di Remigio, R. M. Richard, J. F. Gonthier, A. M. James,
    H. R. McAlexander, A. Kumar, M. Saitow, X. Wang, B. P. Pritchard,
    P. Verma, H. F. Schaefer III, K. Patkowski, R. A. King, E. F. Valeev,
    F. A. Evangelista, J. M. Turney, T. D. Crawford, and C. D. Sherrill,
    J. Chem. Theory Comput. 13(7) pp 3185--3197 (2017).
    (doi: 10.1021/acs.jctc.7b00174)


                         Additional Contributions by
    P. Kraus, H. Kruse, M. H. Lechner, M. C. Schieber, R. A. Shaw,
    A. Alenaizan, R. Galvelis, Z. L. Glick, S. Lehtola, and J. P. Misiewicz

    -----------------------------------------------------------------------


    Psi4 started on: Monday, 09 September 2019 08:36PM

    Process ID: 60589
    Host:       node54.bme.utexas.edu
    PSIDATADIR: /home/xy3866/psi4conda/share/psi4
    Memory:     500.0 MiB
    Threads:    4
    
  ==> Input File <==

--------------------------------------------------------------------------
#psi4
#
memory 32 gb

molecule  {
0 1
  C       -1.9644470     0.1609890    -0.0000020
  H       -3.0589320     0.1627090    -0.0000040
  O       -1.3160380     1.1929960    -0.0000020
  O       -1.4968300    -1.0660630     0.0000020
  H       -0.4778920    -1.0649310     0.0000090
--
0 1
  C        2.0025490    -0.1829050    -0.0000030
  H        3.0843650    -0.3051300    -0.0000050
  N        1.1847580    -1.1802720    -0.0000010
  H        1.6953530    -2.0537770    -0.0000010
  N        1.5876990     1.0939190     0.0000020
  H        0.5916820     1.2924520     0.0000010
  H        2.2546190     1.8385950     0.0000040
units angstrom
no_reorient  #important for SAPT in psi4, default
symmetry c1  #important for SAPT in psi4, default
}

set {
basis aug-cc-pVTZ
scf_type DF
freeze_core True
}
energy('sapt2+')
--------------------------------------------------------------------------

  Memory set to  29.802 GiB by Python driver.

  //>>>>>>>>>>>>>>>>>>>>>>>>>>>>>>>>>>>//
  //              Dimer HF             //
  //<<<<<<<<<<<<<<<<<<<<<<<<<<<<<<<<<<<//


*** tstart() called on node54.bme.utexas.edu
*** at Mon Sep  9 20:36:11 2019

   => Loading Basis Set <=

    Name: AUG-CC-PVTZ
    Role: ORBITAL
    Keyword: BASIS
    atoms 1, 6              entry C          line   235 file /home/xy3866/psi4conda/share/psi4/basis/aug-cc-pvtz.gbs 
    atoms 2, 5, 7, 9, 11-12 entry H          line    36 file /home/xy3866/psi4conda/share/psi4/basis/aug-cc-pvtz.gbs 
    atoms 3-4               entry O          line   327 file /home/xy3866/psi4conda/share/psi4/basis/aug-cc-pvtz.gbs 
    atoms 8, 10             entry N          line   281 file /home/xy3866/psi4conda/share/psi4/basis/aug-cc-pvtz.gbs 


         ---------------------------------------------------------
                                   SCF
               by Justin Turney, Rob Parrish, Andy Simmonett
                          and Daniel G. A. Smith
                              RHF Reference
                        4 Threads,  30517 MiB Core
         ---------------------------------------------------------

  ==> Geometry <==

    Molecular point group: c1
    Full point group: C1

    Geometry (in Angstrom), charge = 0, multiplicity = 1:

       Center              X                  Y                   Z               Mass       
    ------------   -----------------  -----------------  -----------------  -----------------
         C           -1.946786025246     0.156247004552    -0.000001533938    12.000000000000
         H           -3.041271025246     0.157967004552    -0.000003533938     1.007825032230
         O           -1.298377025246     1.188254004552    -0.000001533938    15.994914619570
         O           -1.479169025246    -1.070804995448     0.000002466062    15.994914619570
         H           -0.460231025246    -1.069672995448     0.000009466062     1.007825032230
         C            2.020209974754    -0.187646995448    -0.000002533938    12.000000000000
         H            3.102025974754    -0.309871995448    -0.000004533938     1.007825032230
         N            1.202418974754    -1.185013995448    -0.000000533938    14.003074004430
         H            1.713013974754    -2.058518995448    -0.000000533938     1.007825032230
         N            1.605359974754     1.089177004552     0.000002466062    14.003074004430
         H            0.609342974754     1.287710004552     0.000001466062     1.007825032230
         H            2.272279974754     1.833853004552     0.000004466062     1.007825032230

  Running in c1 symmetry.

  Rotational constants: A =      0.19053  B =      0.07008  C =      0.05123 [cm^-1]
  Rotational constants: A =   5711.81249  B =   2100.85078  C =   1535.92511 [MHz]
  Nuclear repulsion =  232.372325323618725

  Charge       = 0
  Multiplicity = 1
  Electrons    = 48
  Nalpha       = 24
  Nbeta        = 24

  ==> Algorithm <==

  SCF Algorithm Type is DF.
  DIIS enabled.
  MOM disabled.
  Fractional occupation disabled.
  Guess Type is SAD.
  Energy threshold   = 1.00e-08
  Density threshold  = 1.00e-08
  Integral threshold = 0.00e+00

  ==> Primary Basis <==

  Basis Set: AUG-CC-PVTZ
    Blend: AUG-CC-PVTZ
    Number of shells: 138
    Number of basis function: 414
    Number of Cartesian functions: 480
    Spherical Harmonics?: true
    Max angular momentum: 3

   => Loading Basis Set <=

    Name: (AUG-CC-PVTZ AUX)
    Role: JKFIT
    Keyword: DF_BASIS_SCF
    atoms 1, 6              entry C          line   162 file /home/xy3866/psi4conda/share/psi4/basis/aug-cc-pvtz-jkfit.gbs 
    atoms 2, 5, 7, 9, 11-12 entry H          line    70 file /home/xy3866/psi4conda/share/psi4/basis/aug-cc-pvtz-jkfit.gbs 
    atoms 3-4               entry O          line   286 file /home/xy3866/psi4conda/share/psi4/basis/aug-cc-pvtz-jkfit.gbs 
    atoms 8, 10             entry N          line   224 file /home/xy3866/psi4conda/share/psi4/basis/aug-cc-pvtz-jkfit.gbs 

  ==> Pre-Iterations <==

   -------------------------------------------------------
    Irrep   Nso     Nmo     Nalpha   Nbeta   Ndocc  Nsocc
   -------------------------------------------------------
     A        414     414       0       0       0       0
   -------------------------------------------------------
    Total     414     414      24      24      24       0
   -------------------------------------------------------

  ==> Integral Setup <==

  ==> DiskDFJK: Density-Fitted J/K Matrices <==

    J tasked:                  Yes
    K tasked:                  Yes
    wK tasked:                  No
    OpenMP threads:              4
    Integrals threads:           4
    Memory [MiB]:            22888
    Algorithm:                Core
    Integral Cache:           SAVE
    Schwarz Cutoff:          1E-12
    Fitting Condition:       1E-10

   => Auxiliary Basis Set <=

  Basis Set: (AUG-CC-PVTZ AUX)
    Blend: AUG-CC-PVTZ-JKFIT
    Number of shells: 264
    Number of basis function: 900
    Number of Cartesian functions: 1116
    Spherical Harmonics?: true
    Max angular momentum: 4

  Minimum eigenvalue in the overlap matrix is 2.4530001763E-05.
  Using Symmetric Orthogonalization.

  SCF Guess: Superposition of Atomic Densities via on-the-fly atomic UHF.

  ==> Iterations <==

                           Total Energy        Delta E     RMS |[F,P]|

   @DF-RHF iter SAD:  -336.67156849761744   -3.36672e+02   0.00000e+00 
   @DF-RHF iter   1:  -337.79575376823595   -1.12419e+00   1.71966e-03 DIIS
   @DF-RHF iter   2:  -337.94413805330436   -1.48384e-01   1.02992e-03 DIIS
   @DF-RHF iter   3:  -338.00627944247134   -6.21414e-02   1.43780e-04 DIIS
   @DF-RHF iter   4:  -338.00845180242777   -2.17236e-03   6.77737e-05 DIIS
   @DF-RHF iter   5:  -338.00884560893434   -3.93807e-04   1.55126e-05 DIIS
   @DF-RHF iter   6:  -338.00889433787722   -4.87289e-05   7.78824e-06 DIIS
   @DF-RHF iter   7:  -338.00890654035720   -1.22025e-05   2.81252e-06 DIIS
   @DF-RHF iter   8:  -338.00890861999807   -2.07964e-06   1.07988e-06 DIIS
   @DF-RHF iter   9:  -338.00890889043512   -2.70437e-07   3.84101e-07 DIIS
   @DF-RHF iter  10:  -338.00890892558158   -3.51465e-08   1.40502e-07 DIIS
   @DF-RHF iter  11:  -338.00890892902652   -3.44494e-09   4.83454e-08 DIIS
   @DF-RHF iter  12:  -338.00890892943448   -4.07965e-10   1.59337e-08 DIIS
   @DF-RHF iter  13:  -338.00890892946688   -3.24007e-11   3.97851e-09 DIIS
  Energy and wave function converged.


  ==> Post-Iterations <==

    Orbital Energies [Eh]
    ---------------------

    Doubly Occupied:                                                      

       1A    -20.580156     2A    -20.542104     3A    -15.579301  
       4A    -15.541286     5A    -11.374901     6A    -11.336305  
       7A     -1.442182     8A     -1.345160     9A     -1.273386  
      10A     -1.155837    11A     -0.872929    12A     -0.837082  
      13A     -0.760828    14A     -0.711148    15A     -0.694831  
      16A     -0.646325    17A     -0.630173    18A     -0.607003  
      19A     -0.571880    20A     -0.541871    21A     -0.466940  
      22A     -0.466375    23A     -0.435935    24A     -0.377999  

    Virtual:                                                              

      25A      0.022726    26A      0.036447    27A      0.039562  
      28A      0.051397    29A      0.069330    30A      0.072972  
      31A      0.073704    32A      0.089284    33A      0.110802  
      34A      0.116334    35A      0.119380    36A      0.124941  
      37A      0.135233    38A      0.139845    39A      0.143901  
      40A      0.148545    41A      0.154977    42A      0.163276  
      43A      0.182743    44A      0.190723    45A      0.197839  
      46A      0.199506    47A      0.209367    48A      0.218441  
      49A      0.230536    50A      0.252391    51A      0.261603  
      52A      0.264683    53A      0.272421    54A      0.275716  
      55A      0.280554    56A      0.289729    57A      0.303175  
      58A      0.308754    59A      0.316326    60A      0.322557  
      61A      0.323461    62A      0.328045    63A      0.332956  
      64A      0.342040    65A      0.362488    66A      0.365318  
      67A      0.383069    68A      0.386694    69A      0.387934  
      70A      0.404766    71A      0.412645    72A      0.413877  
      73A      0.431188    74A      0.439352    75A      0.439826  
      76A      0.449783    77A      0.462107    78A      0.470550  
      79A      0.482458    80A      0.496538    81A      0.498805  
      82A      0.506325    83A      0.513785    84A      0.525903  
      85A      0.534966    86A      0.536703    87A      0.561968  
      88A      0.571849    89A      0.587781    90A      0.589202  
      91A      0.600596    92A      0.606472    93A      0.637918  
      94A      0.642915    95A      0.654458    96A      0.658673  
      97A      0.677939    98A      0.685734    99A      0.687939  
     100A      0.703815   101A      0.707037   102A      0.716727  
     103A      0.731930   104A      0.737332   105A      0.766525  
     106A      0.766859   107A      0.781286   108A      0.786850  
     109A      0.811774   110A      0.818315   111A      0.830585  
     112A      0.843580   113A      0.849586   114A      0.855691  
     115A      0.861910   116A      0.893098   117A      0.899300  
     118A      0.910393   119A      0.911803   120A      0.921639  
     121A      0.930795   122A      0.944719   123A      0.952680  
     124A      0.956430   125A      0.968683   126A      0.970418  
     127A      0.983953   128A      0.990260   129A      0.993362  
     130A      1.007157   131A      1.007307   132A      1.018886  
     133A      1.024032   134A      1.033015   135A      1.050794  
     136A      1.066406   137A      1.075530   138A      1.078004  
     139A      1.086398   140A      1.089994   141A      1.091658  
     142A      1.130652   143A      1.131156   144A      1.144029  
     145A      1.158145   146A      1.158758   147A      1.175459  
     148A      1.195894   149A      1.212505   150A      1.228787  
     151A      1.238719   152A      1.249652   153A      1.267347  
     154A      1.280386   155A      1.286098   156A      1.299922  
     157A      1.302543   158A      1.309849   159A      1.326133  
     160A      1.336627   161A      1.350891   162A      1.366172  
     163A      1.378327   164A      1.402001   165A      1.404353  
     166A      1.425335   167A      1.437291   168A      1.439240  
     169A      1.444181   170A      1.451641   171A      1.470048  
     172A      1.478985   173A      1.516137   174A      1.524030  
     175A      1.527701   176A      1.544974   177A      1.547897  
     178A      1.559573   179A      1.568675   180A      1.579130  
     181A      1.596932   182A      1.611334   183A      1.631293  
     184A      1.643042   185A      1.648899   186A      1.672754  
     187A      1.680040   188A      1.699840   189A      1.710614  
     190A      1.748161   191A      1.769253   192A      1.775658  
     193A      1.792031   194A      1.815074   195A      1.835512  
     196A      1.853339   197A      1.893315   198A      1.958018  
     199A      1.961794   200A      1.976268   201A      1.980404  
     202A      1.996648   203A      2.024296   204A      2.025662  
     205A      2.071662   206A      2.084774   207A      2.093614  
     208A      2.109896   209A      2.127407   210A      2.166459  
     211A      2.171852   212A      2.177813   213A      2.187905  
     214A      2.195163   215A      2.200624   216A      2.281494  
     217A      2.305472   218A      2.306391   219A      2.356654  
     220A      2.366345   221A      2.367612   222A      2.383370  
     223A      2.422257   224A      2.439796   225A      2.445478  
     226A      2.462298   227A      2.478818   228A      2.510410  
     229A      2.521576   230A      2.537486   231A      2.540256  
     232A      2.547393   233A      2.558471   234A      2.578701  
     235A      2.594437   236A      2.609348   237A      2.624645  
     238A      2.625026   239A      2.642429   240A      2.651689  
     241A      2.693676   242A      2.695249   243A      2.720843  
     244A      2.732348   245A      2.740129   246A      2.787389  
     247A      2.802292   248A      2.861958   249A      2.896272  
     250A      2.906613   251A      2.921809   252A      2.945382  
     253A      2.980775   254A      3.020478   255A      3.053061  
     256A      3.056925   257A      3.073904   258A      3.106805  
     259A      3.184061   260A      3.192936   261A      3.216174  
     262A      3.228687   263A      3.251389   264A      3.289382  
     265A      3.391794   266A      3.415203   267A      3.420159  
     268A      3.435129   269A      3.455573   270A      3.515424  
     271A      3.556286   272A      3.589983   273A      3.656503  
     274A      3.661615   275A      3.692087   276A      3.702380  
     277A      3.724116   278A      3.797711   279A      3.814795  
     280A      3.838341   281A      3.843578   282A      3.849259  
     283A      3.927083   284A      3.952297   285A      4.008460  
     286A      4.028706   287A      4.056548   288A      4.066815  
     289A      4.076676   290A      4.111104   291A      4.112172  
     292A      4.136319   293A      4.143101   294A      4.180118  
     295A      4.186070   296A      4.221810   297A      4.225585  
     298A      4.251895   299A      4.252123   300A      4.288596  
     301A      4.322938   302A      4.341569   303A      4.342357  
     304A      4.349737   305A      4.371240   306A      4.390634  
     307A      4.431110   308A      4.438491   309A      4.453581  
     310A      4.513625   311A      4.534544   312A      4.561651  
     313A      4.583310   314A      4.597639   315A      4.614107  
     316A      4.655642   317A      4.688165   318A      4.747975  
     319A      4.768326   320A      4.782014   321A      4.809307  
     322A      4.828074   323A      4.836975   324A      4.840877  
     325A      4.896104   326A      4.901447   327A      4.918516  
     328A      4.947924   329A      4.958716   330A      4.969838  
     331A      5.018472   332A      5.038995   333A      5.082173  
     334A      5.106700   335A      5.151231   336A      5.191156  
     337A      5.197738   338A      5.213882   339A      5.217096  
     340A      5.225986   341A      5.248442   342A      5.344041  
     343A      5.351854   344A      5.367253   345A      5.405524  
     346A      5.413146   347A      5.474059   348A      5.491268  
     349A      5.500779   350A      5.547940   351A      5.580289  
     352A      5.593266   353A      5.635182   354A      5.647511  
     355A      5.721435   356A      5.759609   357A      5.766943  
     358A      5.778218   359A      5.790090   360A      5.834446  
     361A      5.862907   362A      5.966386   363A      5.985401  
     364A      6.091905   365A      6.101480   366A      6.112489  
     367A      6.152656   368A      6.170035   369A      6.264212  
     370A      6.287850   371A      6.313090   372A      6.439421  
     373A      6.444334   374A      6.530554   375A      6.614670  
     376A      6.655930   377A      6.721713   378A      6.742773  
     379A      6.780523   380A      6.846027   381A      6.879316  
     382A      6.919757   383A      6.943372   384A      6.970626  
     385A      7.052784   386A      7.087104   387A      7.182216  
     388A      7.204045   389A      7.270665   390A      7.285857  
     391A      7.287288   392A      7.399968   393A      7.407485  
     394A      7.448043   395A      7.505912   396A      7.546596  
     397A      7.588661   398A      7.600433   399A      7.667991  
     400A      7.714556   401A      7.737425   402A      7.863605  
     403A      7.894226   404A      7.957162   405A      8.096032  
     406A      8.198316   407A      8.364428   408A      8.689168  
     409A     15.285591   410A     16.235493   411A     17.190481  
     412A     17.765702   413A     18.415849   414A     19.037605  

    Final Occupation by Irrep:
              A 
    DOCC [    24 ]

  @DF-RHF Final Energy:  -338.00890892946688

   => Energetics <=

    Nuclear Repulsion Energy =            232.3723253236187247
    One-Electron Energy =                -923.1786024972253699
    Two-Electron Energy =                 352.7973682441397614
    Total Energy =                       -338.0089089294668838

Computation Completed


Properties will be evaluated at   0.000000,   0.000000,   0.000000 [a0]

Properties computed using the SCF density matrix

  Nuclear Dipole Moment: [e a0]
     X:     3.9113      Y:    -0.1478      Z:     0.0000

  Electronic Dipole Moment: [e a0]
     X:    -2.6879      Y:     0.2261      Z:    -0.0000

  Dipole Moment: [e a0]
     X:     1.2234      Y:     0.0783      Z:     0.0000     Total:     1.2259

  Dipole Moment: [D]
     X:     3.1097      Y:     0.1991      Z:     0.0000     Total:     3.1160


*** tstop() called on node54.bme.utexas.edu at Mon Sep  9 20:36:28 2019
Module time:
	user time   =      64.72 seconds =       1.08 minutes
	system time =       1.24 seconds =       0.02 minutes
	total time  =         17 seconds =       0.28 minutes
Total time:
	user time   =      64.72 seconds =       1.08 minutes
	system time =       1.24 seconds =       0.02 minutes
	total time  =         17 seconds =       0.28 minutes

  //>>>>>>>>>>>>>>>>>>>>>>>>>>>>>>>>>>>//
  //            Monomer A HF           //
  //<<<<<<<<<<<<<<<<<<<<<<<<<<<<<<<<<<<//


*** tstart() called on node54.bme.utexas.edu
*** at Mon Sep  9 20:36:28 2019

   => Loading Basis Set <=

    Name: AUG-CC-PVTZ
    Role: ORBITAL
    Keyword: BASIS
    atoms 1, 6              entry C          line   235 file /home/xy3866/psi4conda/share/psi4/basis/aug-cc-pvtz.gbs 
    atoms 2, 5, 7, 9, 11-12 entry H          line    36 file /home/xy3866/psi4conda/share/psi4/basis/aug-cc-pvtz.gbs 
    atoms 3-4               entry O          line   327 file /home/xy3866/psi4conda/share/psi4/basis/aug-cc-pvtz.gbs 
    atoms 8, 10             entry N          line   281 file /home/xy3866/psi4conda/share/psi4/basis/aug-cc-pvtz.gbs 


         ---------------------------------------------------------
                                   SCF
               by Justin Turney, Rob Parrish, Andy Simmonett
                          and Daniel G. A. Smith
                              RHF Reference
                        4 Threads,  30517 MiB Core
         ---------------------------------------------------------

  ==> Geometry <==

    Molecular point group: c1
    Full point group: C1

    Geometry (in Angstrom), charge = 0, multiplicity = 1:

       Center              X                  Y                   Z               Mass       
    ------------   -----------------  -----------------  -----------------  -----------------
         C           -1.946786025246     0.156247004552    -0.000001533938    12.000000000000
         H           -3.041271025246     0.157967004552    -0.000003533938     1.007825032230
         O           -1.298377025246     1.188254004552    -0.000001533938    15.994914619570
         O           -1.479169025246    -1.070804995448     0.000002466062    15.994914619570
         H           -0.460231025246    -1.069672995448     0.000009466062     1.007825032230
      Gh(C)           2.020209974754    -0.187646995448    -0.000002533938    12.000000000000
      Gh(H)           3.102025974754    -0.309871995448    -0.000004533938     1.007825032230
      Gh(N)           1.202418974754    -1.185013995448    -0.000000533938    14.003074004430
      Gh(H)           1.713013974754    -2.058518995448    -0.000000533938     1.007825032230
      Gh(N)           1.605359974754     1.089177004552     0.000002466062    14.003074004430
      Gh(H)           0.609342974754     1.287710004552     0.000001466062     1.007825032230
      Gh(H)           2.272279974754     1.833853004552     0.000004466062     1.007825032230

  Running in c1 symmetry.

  Rotational constants: A =      0.19053  B =      0.07008  C =      0.05123 [cm^-1]
  Rotational constants: A =   5711.81249  B =   2100.85078  C =   1535.92511 [MHz]
  Nuclear repulsion =   69.995387312911120

  Charge       = 0
  Multiplicity = 1
  Electrons    = 24
  Nalpha       = 12
  Nbeta        = 12

  ==> Algorithm <==

  SCF Algorithm Type is DF.
  DIIS enabled.
  MOM disabled.
  Fractional occupation disabled.
  Guess Type is SAD.
  Energy threshold   = 1.00e-08
  Density threshold  = 1.00e-08
  Integral threshold = 0.00e+00

  ==> Primary Basis <==

  Basis Set: AUG-CC-PVTZ
    Blend: AUG-CC-PVTZ
    Number of shells: 138
    Number of basis function: 414
    Number of Cartesian functions: 480
    Spherical Harmonics?: true
    Max angular momentum: 3

   => Loading Basis Set <=

    Name: (AUG-CC-PVTZ AUX)
    Role: JKFIT
    Keyword: DF_BASIS_SCF
    atoms 1, 6              entry C          line   162 file /home/xy3866/psi4conda/share/psi4/basis/aug-cc-pvtz-jkfit.gbs 
    atoms 2, 5, 7, 9, 11-12 entry H          line    70 file /home/xy3866/psi4conda/share/psi4/basis/aug-cc-pvtz-jkfit.gbs 
    atoms 3-4               entry O          line   286 file /home/xy3866/psi4conda/share/psi4/basis/aug-cc-pvtz-jkfit.gbs 
    atoms 8, 10             entry N          line   224 file /home/xy3866/psi4conda/share/psi4/basis/aug-cc-pvtz-jkfit.gbs 

  ==> Pre-Iterations <==

   -------------------------------------------------------
    Irrep   Nso     Nmo     Nalpha   Nbeta   Ndocc  Nsocc
   -------------------------------------------------------
     A        414     414       0       0       0       0
   -------------------------------------------------------
    Total     414     414      12      12      12       0
   -------------------------------------------------------

  ==> Integral Setup <==

  ==> DiskDFJK: Density-Fitted J/K Matrices <==

    J tasked:                  Yes
    K tasked:                  Yes
    wK tasked:                  No
    OpenMP threads:              4
    Integrals threads:           4
    Memory [MiB]:            22888
    Algorithm:                Core
    Integral Cache:           LOAD
    Schwarz Cutoff:          1E-12
    Fitting Condition:       1E-10

   => Auxiliary Basis Set <=

  Basis Set: (AUG-CC-PVTZ AUX)
    Blend: AUG-CC-PVTZ-JKFIT
    Number of shells: 264
    Number of basis function: 900
    Number of Cartesian functions: 1116
    Spherical Harmonics?: true
    Max angular momentum: 4

  Minimum eigenvalue in the overlap matrix is 2.4530001763E-05.
  Using Symmetric Orthogonalization.

  SCF Guess: Superposition of Atomic Densities via on-the-fly atomic UHF.

  ==> Iterations <==

                           Total Energy        Delta E     RMS |[F,P]|

   @DF-RHF iter SAD:  -187.97904355287193   -1.87979e+02   0.00000e+00 
   @DF-RHF iter   1:  -188.73110825063958   -7.52065e-01   1.26154e-03 DIIS
   @DF-RHF iter   2:  -188.79379557293885   -6.26873e-02   8.97780e-04 DIIS
   @DF-RHF iter   3:  -188.83718990934176   -4.33943e-02   1.07172e-04 DIIS
   @DF-RHF iter   4:  -188.83833722573513   -1.14732e-03   5.67309e-05 DIIS
   @DF-RHF iter   5:  -188.83862719660914   -2.89971e-04   1.37166e-05 DIIS
   @DF-RHF iter   6:  -188.83866940582104   -4.22092e-05   5.90997e-06 DIIS
   @DF-RHF iter   7:  -188.83867878677668   -9.38096e-06   2.13354e-06 DIIS
   @DF-RHF iter   8:  -188.83867989000180   -1.10323e-06   6.70875e-07 DIIS
   @DF-RHF iter   9:  -188.83868000116351   -1.11162e-07   1.93487e-07 DIIS
   @DF-RHF iter  10:  -188.83868001017271   -9.00920e-09   4.31116e-08 DIIS
   @DF-RHF iter  11:  -188.83868001055924   -3.86535e-10   7.44868e-09 DIIS
  Energy and wave function converged.


  ==> Post-Iterations <==

    Orbital Energies [Eh]
    ---------------------

    Doubly Occupied:                                                      

       1A    -20.639699     2A    -20.560499     3A    -11.395816  
       4A     -1.478616     5A     -1.367914     6A     -0.898059  
       7A     -0.730462     8A     -0.708494     9A     -0.643557  
      10A     -0.593094    11A     -0.490071    12A     -0.469580  

    Virtual:                                                              

      13A      0.019709    14A      0.033364    15A      0.038867  
      16A      0.051258    17A      0.064949    18A      0.068638  
      19A      0.071160    20A      0.083367    21A      0.084573  
      22A      0.108468    23A      0.111891    24A      0.120463  
      25A      0.126900    26A      0.134128    27A      0.137417  
      28A      0.138571    29A      0.145934    30A      0.158554  
      31A      0.173428    32A      0.182138    33A      0.195193  
      34A      0.195904    35A      0.199501    36A      0.213762  
      37A      0.224836    38A      0.243510    39A      0.250377  
      40A      0.259846    41A      0.268975    42A      0.275169  
      43A      0.278715    44A      0.290543    45A      0.295371  
      46A      0.307041    47A      0.310506    48A      0.318448  
      49A      0.326294    50A      0.337852    51A      0.343029  
      52A      0.348681    53A      0.350355    54A      0.357969  
      55A      0.366740    56A      0.370942    57A      0.373061  
      58A      0.390546    59A      0.409563    60A      0.419526  
      61A      0.420352    62A      0.426792    63A      0.429240  
      64A      0.436544    65A      0.450291    66A      0.459337  
      67A      0.462640    68A      0.478862    69A      0.482938  
      70A      0.506908    71A      0.516300    72A      0.529170  
      73A      0.543921    74A      0.550211    75A      0.566200  
      76A      0.571100    77A      0.590498    78A      0.603194  
      79A      0.615335    80A      0.631730    81A      0.642083  
      82A      0.655040    83A      0.663815    84A      0.686918  
      85A      0.689450    86A      0.691877    87A      0.717085  
      88A      0.728929    89A      0.732508    90A      0.753869  
      91A      0.762114    92A      0.770490    93A      0.774100  
      94A      0.783091    95A      0.795663    96A      0.804714  
      97A      0.811249    98A      0.819990    99A      0.828520  
     100A      0.850870   101A      0.854786   102A      0.856057  
     103A      0.885093   104A      0.885979   105A      0.893772  
     106A      0.902641   107A      0.903036   108A      0.916232  
     109A      0.924710   110A      0.926893   111A      0.938784  
     112A      0.959837   113A      0.971474   114A      0.972821  
     115A      0.984900   116A      0.994664   117A      0.996443  
     118A      1.020057   119A      1.025559   120A      1.038710  
     121A      1.039912   122A      1.055241   123A      1.066373  
     124A      1.082099   125A      1.084671   126A      1.086942  
     127A      1.107063   128A      1.111922   129A      1.132295  
     130A      1.137093   131A      1.155078   132A      1.168768  
     133A      1.170413   134A      1.178313   135A      1.221581  
     136A      1.225081   137A      1.238166   138A      1.248442  
     139A      1.261224   140A      1.288354   141A      1.289971  
     142A      1.294336   143A      1.309582   144A      1.322309  
     145A      1.326515   146A      1.349724   147A      1.388016  
     148A      1.394588   149A      1.407818   150A      1.429846  
     151A      1.434414   152A      1.468201   153A      1.474483  
     154A      1.481540   155A      1.501515   156A      1.511145  
     157A      1.511293   158A      1.520833   159A      1.521890  
     160A      1.551500   161A      1.553912   162A      1.586467  
     163A      1.593892   164A      1.606259   165A      1.622487  
     166A      1.624421   167A      1.636368   168A      1.660595  
     169A      1.662198   170A      1.671749   171A      1.683533  
     172A      1.702032   173A      1.713479   174A      1.716811  
     175A      1.722734   176A      1.727597   177A      1.738143  
     178A      1.746629   179A      1.766521   180A      1.773569  
     181A      1.792690   182A      1.797852   183A      1.809567  
     184A      1.824690   185A      1.858085   186A      1.907433  
     187A      1.918491   188A      1.936026   189A      1.994474  
     190A      1.995500   191A      2.038805   192A      2.064445  
     193A      2.079587   194A      2.087872   195A      2.096910  
     196A      2.125615   197A      2.151894   198A      2.178304  
     199A      2.219535   200A      2.220516   201A      2.261024  
     202A      2.302439   203A      2.317312   204A      2.334629  
     205A      2.348900   206A      2.358379   207A      2.360039  
     208A      2.409287   209A      2.410631   210A      2.430472  
     211A      2.435023   212A      2.483380   213A      2.498596  
     214A      2.519158   215A      2.528415   216A      2.531805  
     217A      2.543423   218A      2.575647   219A      2.582797  
     220A      2.586836   221A      2.596603   222A      2.620756  
     223A      2.624276   224A      2.646497   225A      2.694675  
     226A      2.723032   227A      2.725884   228A      2.740773  
     229A      2.746645   230A      2.759455   231A      2.807746  
     232A      2.821589   233A      2.830991   234A      2.863260  
     235A      2.875922   236A      2.903903   237A      2.912562  
     238A      2.940255   239A      2.959772   240A      2.973784  
     241A      2.989033   242A      3.020588   243A      3.023291  
     244A      3.060597   245A      3.070180   246A      3.123000  
     247A      3.141858   248A      3.152740   249A      3.176900  
     250A      3.208883   251A      3.237472   252A      3.245822  
     253A      3.280294   254A      3.350065   255A      3.364892  
     256A      3.411973   257A      3.437383   258A      3.456352  
     259A      3.538470   260A      3.560710   261A      3.627256  
     262A      3.653532   263A      3.654606   264A      3.671011  
     265A      3.722602   266A      3.808006   267A      3.833089  
     268A      3.904565   269A      3.958074   270A      4.021360  
     271A      4.026978   272A      4.076756   273A      4.103156  
     274A      4.109682   275A      4.161653   276A      4.170792  
     277A      4.209149   278A      4.216034   279A      4.252905  
     280A      4.302295   281A      4.381902   282A      4.414303  
     283A      4.416018   284A      4.433945   285A      4.439935  
     286A      4.474197   287A      4.489668   288A      4.518927  
     289A      4.565915   290A      4.603353   291A      4.634014  
     292A      4.668954   293A      4.669040   294A      4.734168  
     295A      4.750861   296A      4.778895   297A      4.805709  
     298A      4.816286   299A      4.822574   300A      4.866726  
     301A      4.876508   302A      4.888913   303A      4.897009  
     304A      4.919443   305A      4.967697   306A      4.980255  
     307A      5.000301   308A      5.002709   309A      5.035806  
     310A      5.056550   311A      5.076584   312A      5.162451  
     313A      5.182375   314A      5.193522   315A      5.214740  
     316A      5.240987   317A      5.298685   318A      5.305318  
     319A      5.330827   320A      5.338882   321A      5.350770  
     322A      5.366633   323A      5.381029   324A      5.384211  
     325A      5.436357   326A      5.456685   327A      5.474819  
     328A      5.512477   329A      5.534438   330A      5.682980  
     331A      5.740225   332A      5.770774   333A      5.798819  
     334A      5.867168   335A      5.893986   336A      5.948609  
     337A      6.033323   338A      6.059876   339A      6.109888  
     340A      6.171474   341A      6.194661   342A      6.259539  
     343A      6.318031   344A      6.342269   345A      6.368604  
     346A      6.413409   347A      6.459312   348A      6.464651  
     349A      6.562950   350A      6.575541   351A      6.594091  
     352A      6.640911   353A      6.666180   354A      6.720648  
     355A      6.746309   356A      6.801402   357A      6.832251  
     358A      6.844592   359A      6.882235   360A      6.897268  
     361A      6.918159   362A      6.960158   363A      7.081515  
     364A      7.093111   365A      7.164947   366A      7.177255  
     367A      7.187709   368A      7.247970   369A      7.261957  
     370A      7.280458   371A      7.332582   372A      7.364097  
     373A      7.430810   374A      7.456660   375A      7.474569  
     376A      7.518439   377A      7.571983   378A      7.593761  
     379A      7.619462   380A      7.659391   381A      7.671081  
     382A      7.690709   383A      7.717135   384A      7.731268  
     385A      7.759957   386A      7.858604   387A      7.906975  
     388A      7.969919   389A      8.045065   390A      8.079908  
     391A      8.228638   392A      8.295923   393A      8.332654  
     394A      8.509669   395A      8.605631   396A      8.702150  
     397A      9.036874   398A      9.312449   399A      9.427194  
     400A      9.436629   401A      9.525408   402A     10.187244  
     403A     10.786475   404A     11.212469   405A     11.658650  
     406A     11.714553   407A     12.151383   408A     12.896142  
     409A     15.315607   410A     16.224978   411A     18.384556  
     412A     51.879104   413A     59.561601   414A     62.605014  

    Final Occupation by Irrep:
              A 
    DOCC [    12 ]

  @DF-RHF Final Energy:  -188.83868001055924

   => Energetics <=

    Nuclear Repulsion Energy =             69.9953873129111201
    One-Electron Energy =                -397.7164087928330787
    Two-Electron Energy =                 138.8823414693627001
    Total Energy =                       -188.8386800105592442

Computation Completed


Properties will be evaluated at   0.000000,   0.000000,   0.000000 [a0]

Properties computed using the SCF density matrix

  Nuclear Dipole Moment: [e a0]
     X:   -70.6806      Y:     1.8243      Z:     0.0000

  Electronic Dipole Moment: [e a0]
     X:    70.5729      Y:    -2.6557      Z:    -0.0000

  Dipole Moment: [e a0]
     X:    -0.1078      Y:    -0.8314      Z:     0.0000     Total:     0.8384

  Dipole Moment: [D]
     X:    -0.2740      Y:    -2.1133      Z:     0.0000     Total:     2.1310


*** tstop() called on node54.bme.utexas.edu at Mon Sep  9 20:36:38 2019
Module time:
	user time   =      34.21 seconds =       0.57 minutes
	system time =       0.68 seconds =       0.01 minutes
	total time  =         10 seconds =       0.17 minutes
Total time:
	user time   =      98.95 seconds =       1.65 minutes
	system time =       1.92 seconds =       0.03 minutes
	total time  =         27 seconds =       0.45 minutes

  //>>>>>>>>>>>>>>>>>>>>>>>>>>>>>>>>>>>//
  //            Monomer B HF           //
  //<<<<<<<<<<<<<<<<<<<<<<<<<<<<<<<<<<<//


*** tstart() called on node54.bme.utexas.edu
*** at Mon Sep  9 20:36:38 2019

   => Loading Basis Set <=

    Name: AUG-CC-PVTZ
    Role: ORBITAL
    Keyword: BASIS
    atoms 1, 6              entry C          line   235 file /home/xy3866/psi4conda/share/psi4/basis/aug-cc-pvtz.gbs 
    atoms 2, 5, 7, 9, 11-12 entry H          line    36 file /home/xy3866/psi4conda/share/psi4/basis/aug-cc-pvtz.gbs 
    atoms 3-4               entry O          line   327 file /home/xy3866/psi4conda/share/psi4/basis/aug-cc-pvtz.gbs 
    atoms 8, 10             entry N          line   281 file /home/xy3866/psi4conda/share/psi4/basis/aug-cc-pvtz.gbs 


         ---------------------------------------------------------
                                   SCF
               by Justin Turney, Rob Parrish, Andy Simmonett
                          and Daniel G. A. Smith
                              RHF Reference
                        4 Threads,  30517 MiB Core
         ---------------------------------------------------------

  ==> Geometry <==

    Molecular point group: c1
    Full point group: C1

    Geometry (in Angstrom), charge = 0, multiplicity = 1:

       Center              X                  Y                   Z               Mass       
    ------------   -----------------  -----------------  -----------------  -----------------
      Gh(C)          -1.946786025246     0.156247004552    -0.000001533938    12.000000000000
      Gh(H)          -3.041271025246     0.157967004552    -0.000003533938     1.007825032230
      Gh(O)          -1.298377025246     1.188254004552    -0.000001533938    15.994914619570
      Gh(O)          -1.479169025246    -1.070804995448     0.000002466062    15.994914619570
      Gh(H)          -0.460231025246    -1.069672995448     0.000009466062     1.007825032230
         C            2.020209974754    -0.187646995448    -0.000002533938    12.000000000000
         H            3.102025974754    -0.309871995448    -0.000004533938     1.007825032230
         N            1.202418974754    -1.185013995448    -0.000000533938    14.003074004430
         H            1.713013974754    -2.058518995448    -0.000000533938     1.007825032230
         N            1.605359974754     1.089177004552     0.000002466062    14.003074004430
         H            0.609342974754     1.287710004552     0.000001466062     1.007825032230
         H            2.272279974754     1.833853004552     0.000004466062     1.007825032230

  Running in c1 symmetry.

  Rotational constants: A =      0.19053  B =      0.07008  C =      0.05123 [cm^-1]
  Rotational constants: A =   5711.81249  B =   2100.85078  C =   1535.92511 [MHz]
  Nuclear repulsion =   72.334192798714014

  Charge       = 0
  Multiplicity = 1
  Electrons    = 24
  Nalpha       = 12
  Nbeta        = 12

  ==> Algorithm <==

  SCF Algorithm Type is DF.
  DIIS enabled.
  MOM disabled.
  Fractional occupation disabled.
  Guess Type is SAD.
  Energy threshold   = 1.00e-08
  Density threshold  = 1.00e-08
  Integral threshold = 0.00e+00

  ==> Primary Basis <==

  Basis Set: AUG-CC-PVTZ
    Blend: AUG-CC-PVTZ
    Number of shells: 138
    Number of basis function: 414
    Number of Cartesian functions: 480
    Spherical Harmonics?: true
    Max angular momentum: 3

   => Loading Basis Set <=

    Name: (AUG-CC-PVTZ AUX)
    Role: JKFIT
    Keyword: DF_BASIS_SCF
    atoms 1, 6              entry C          line   162 file /home/xy3866/psi4conda/share/psi4/basis/aug-cc-pvtz-jkfit.gbs 
    atoms 2, 5, 7, 9, 11-12 entry H          line    70 file /home/xy3866/psi4conda/share/psi4/basis/aug-cc-pvtz-jkfit.gbs 
    atoms 3-4               entry O          line   286 file /home/xy3866/psi4conda/share/psi4/basis/aug-cc-pvtz-jkfit.gbs 
    atoms 8, 10             entry N          line   224 file /home/xy3866/psi4conda/share/psi4/basis/aug-cc-pvtz-jkfit.gbs 

  ==> Pre-Iterations <==

   -------------------------------------------------------
    Irrep   Nso     Nmo     Nalpha   Nbeta   Ndocc  Nsocc
   -------------------------------------------------------
     A        414     414       0       0       0       0
   -------------------------------------------------------
    Total     414     414      12      12      12       0
   -------------------------------------------------------

  ==> Integral Setup <==

  ==> DiskDFJK: Density-Fitted J/K Matrices <==

    J tasked:                  Yes
    K tasked:                  Yes
    wK tasked:                  No
    OpenMP threads:              4
    Integrals threads:           4
    Memory [MiB]:            22888
    Algorithm:                Core
    Integral Cache:           LOAD
    Schwarz Cutoff:          1E-12
    Fitting Condition:       1E-10

   => Auxiliary Basis Set <=

  Basis Set: (AUG-CC-PVTZ AUX)
    Blend: AUG-CC-PVTZ-JKFIT
    Number of shells: 264
    Number of basis function: 900
    Number of Cartesian functions: 1116
    Spherical Harmonics?: true
    Max angular momentum: 4

  Minimum eigenvalue in the overlap matrix is 2.4530001763E-05.
  Using Symmetric Orthogonalization.

  SCF Guess: Superposition of Atomic Densities via on-the-fly atomic UHF.

  ==> Iterations <==

                           Total Energy        Delta E     RMS |[F,P]|

   @DF-RHF iter SAD:  -148.39929841955330   -1.48399e+02   0.00000e+00 
   @DF-RHF iter   1:  -148.99807261833928   -5.98774e-01   1.32807e-03 DIIS
   @DF-RHF iter   2:  -149.10016731834779   -1.02095e-01   7.81650e-04 DIIS
   @DF-RHF iter   3:  -149.14199088297860   -4.18236e-02   1.09333e-04 DIIS
   @DF-RHF iter   4:  -149.14340206716520   -1.41118e-03   5.40716e-05 DIIS
   @DF-RHF iter   5:  -149.14367910962667   -2.77042e-04   9.80381e-06 DIIS
   @DF-RHF iter   6:  -149.14370755740393   -2.84478e-05   4.60266e-06 DIIS
   @DF-RHF iter   7:  -149.14371220435515   -4.64695e-06   1.85515e-06 DIIS
   @DF-RHF iter   8:  -149.14371312430799   -9.19953e-07   5.49427e-07 DIIS
   @DF-RHF iter   9:  -149.14371320905425   -8.47463e-08   1.68591e-07 DIIS
   @DF-RHF iter  10:  -149.14371321655045   -7.49620e-09   4.17743e-08 DIIS
   @DF-RHF iter  11:  -149.14371321701867   -4.68219e-10   7.94385e-09 DIIS
  Energy and wave function converged.


  ==> Post-Iterations <==

    Orbital Energies [Eh]
    ---------------------

    Doubly Occupied:                                                      

       1A    -15.580678     2A    -15.518358     3A    -11.313916  
       4A     -1.260955     5A     -1.136087     6A     -0.830612  
       7A     -0.749115     8A     -0.640566     9A     -0.618119  
      10A     -0.530872    11A     -0.417500    12A     -0.358862  

    Virtual:                                                              

      13A      0.022763    14A      0.032035    15A      0.037812  
      16A      0.052515    17A      0.062085    18A      0.073618  
      19A      0.074510    20A      0.089228    21A      0.099461  
      22A      0.110294    23A      0.115751    24A      0.120092  
      25A      0.131390    26A      0.135284    27A      0.142285  
      28A      0.152774    29A      0.154534    30A      0.163659  
      31A      0.177131    32A      0.186913    33A      0.192233  
      34A      0.209003    35A      0.210604    36A      0.219620  
      37A      0.227990    38A      0.229253    39A      0.250812  
      40A      0.259555    41A      0.262610    42A      0.274263  
      43A      0.282659    44A      0.285718    45A      0.302804  
      46A      0.311135    47A      0.316546    48A      0.320662  
      49A      0.326904    50A      0.335082    51A      0.339647  
      52A      0.349525    53A      0.361547    54A      0.371040  
      55A      0.376685    56A      0.386137    57A      0.400764  
      58A      0.408424    59A      0.413911    60A      0.424900  
      61A      0.426152    62A      0.431376    63A      0.435403  
      64A      0.453831    65A      0.466229    66A      0.468686  
      67A      0.484340    68A      0.486246    69A      0.513192  
      70A      0.514361    71A      0.518569    72A      0.525489  
      73A      0.528689    74A      0.545784    75A      0.556226  
      76A      0.565719    77A      0.579936    78A      0.591761  
      79A      0.606205    80A      0.644619    81A      0.657443  
      82A      0.658833    83A      0.662124    84A      0.670513  
      85A      0.677423    86A      0.691776    87A      0.696700  
      88A      0.706932    89A      0.716499    90A      0.721945  
      91A      0.737298    92A      0.743801    93A      0.767448  
      94A      0.787866    95A      0.799830    96A      0.833652  
      97A      0.845444    98A      0.853919    99A      0.861362  
     100A      0.866472   101A      0.868728   102A      0.897677  
     103A      0.903024   104A      0.914834   105A      0.924000  
     106A      0.924740   107A      0.931695   108A      0.933532  
     109A      0.937743   110A      0.946854   111A      0.968107  
     112A      0.982185   113A      0.982749   114A      0.996088  
     115A      0.997548   116A      1.004709   117A      1.012765  
     118A      1.032990   119A      1.033715   120A      1.033977  
     121A      1.041753   122A      1.048622   123A      1.058704  
     124A      1.079651   125A      1.082630   126A      1.092322  
     127A      1.100178   128A      1.109417   129A      1.116230  
     130A      1.118515   131A      1.130866   132A      1.143242  
     133A      1.149907   134A      1.161688   135A      1.182352  
     136A      1.195854   137A      1.203486   138A      1.226199  
     139A      1.248665   140A      1.268899   141A      1.271501  
     142A      1.282562   143A      1.301193   144A      1.309431  
     145A      1.310609   146A      1.336583   147A      1.355393  
     148A      1.359924   149A      1.370723   150A      1.388262  
     151A      1.402169   152A      1.411141   153A      1.428566  
     154A      1.441483   155A      1.444260   156A      1.459079  
     157A      1.472492   158A      1.477544   159A      1.480946  
     160A      1.507648   161A      1.530354   162A      1.554099  
     163A      1.559259   164A      1.568370   165A      1.600388  
     166A      1.600959   167A      1.620384   168A      1.637830  
     169A      1.665706   170A      1.698324   171A      1.702754  
     172A      1.720790   173A      1.745702   174A      1.762822  
     175A      1.768703   176A      1.795430   177A      1.817679  
     178A      1.840237   179A      1.852659   180A      1.859329  
     181A      1.881058   182A      1.887575   183A      1.896006  
     184A      1.918750   185A      1.934970   186A      1.961240  
     187A      1.963187   188A      2.005297   189A      2.018366  
     190A      2.023957   191A      2.030644   192A      2.050672  
     193A      2.069848   194A      2.102277   195A      2.104477  
     196A      2.133184   197A      2.138502   198A      2.150906  
     199A      2.154633   200A      2.167734   201A      2.196350  
     202A      2.204779   203A      2.237972   204A      2.290664  
     205A      2.297565   206A      2.366047   207A      2.370276  
     208A      2.386752   209A      2.415520   210A      2.431908  
     211A      2.435782   212A      2.459480   213A      2.463149  
     214A      2.494774   215A      2.525019   216A      2.541881  
     217A      2.580543   218A      2.585210   219A      2.621964  
     220A      2.630725   221A      2.645907   222A      2.653526  
     223A      2.658598   224A      2.675000   225A      2.675902  
     226A      2.711863   227A      2.711960   228A      2.759356  
     229A      2.782011   230A      2.784692   231A      2.814161  
     232A      2.819775   233A      2.851340   234A      2.855158  
     235A      2.867915   236A      2.898127   237A      2.910655  
     238A      2.940641   239A      2.963376   240A      2.982526  
     241A      3.078905   242A      3.115137   243A      3.124289  
     244A      3.146798   245A      3.191813   246A      3.197386  
     247A      3.246772   248A      3.296088   249A      3.362178  
     250A      3.392115   251A      3.403622   252A      3.456009  
     253A      3.456051   254A      3.483667   255A      3.554398  
     256A      3.562464   257A      3.569606   258A      3.603935  
     259A      3.607898   260A      3.655070   261A      3.677313  
     262A      3.698953   263A      3.758133   264A      3.812376  
     265A      3.832599   266A      3.853431   267A      3.879440  
     268A      3.891071   269A      3.895003   270A      3.965421  
     271A      3.981721   272A      4.033139   273A      4.071995  
     274A      4.076381   275A      4.081353   276A      4.114112  
     277A      4.139782   278A      4.148768   279A      4.149295  
     280A      4.189809   281A      4.194978   282A      4.212396  
     283A      4.271207   284A      4.293767   285A      4.306808  
     286A      4.329904   287A      4.343137   288A      4.363287  
     289A      4.381948   290A      4.406976   291A      4.450523  
     292A      4.521672   293A      4.564345   294A      4.587163  
     295A      4.610976   296A      4.624514   297A      4.647620  
     298A      4.673239   299A      4.728524   300A      4.735929  
     301A      4.768723   302A      4.794497   303A      4.814754  
     304A      4.815155   305A      4.819656   306A      4.862445  
     307A      4.892883   308A      4.895613   309A      4.928520  
     310A      4.931163   311A      4.964100   312A      4.974884  
     313A      5.006230   314A      5.020295   315A      5.071783  
     316A      5.080580   317A      5.123244   318A      5.126879  
     319A      5.156496   320A      5.183516   321A      5.224195  
     322A      5.241153   323A      5.273085   324A      5.293955  
     325A      5.310717   326A      5.338939   327A      5.408394  
     328A      5.411111   329A      5.464060   330A      5.478442  
     331A      5.484948   332A      5.498553   333A      5.521415  
     334A      5.552722   335A      5.597370   336A      5.600628  
     337A      5.603153   338A      5.619444   339A      5.661899  
     340A      5.725807   341A      5.769464   342A      5.775100  
     343A      5.828896   344A      5.833926   345A      5.865325  
     346A      5.948608   347A      5.966919   348A      5.983129  
     349A      6.020650   350A      6.077386   351A      6.121773  
     352A      6.140505   353A      6.167882   354A      6.198304  
     355A      6.249908   356A      6.277454   357A      6.329830  
     358A      6.507191   359A      6.543721   360A      6.593347  
     361A      6.628251   362A      6.738508   363A      6.754164  
     364A      6.768931   365A      6.967760   366A      7.023596  
     367A      7.050980   368A      7.191514   369A      7.258558  
     370A      7.464586   371A      7.497362   372A      7.571601  
     373A      7.684937   374A      7.710756   375A      7.769762  
     376A      7.797439   377A      7.847229   378A      7.855057  
     379A      7.919841   380A      8.083541   381A      8.089906  
     382A      8.132236   383A      8.206406   384A      8.301816  
     385A      8.333200   386A      8.512437   387A      8.764707  
     388A      8.922782   389A      9.217623   390A      9.766079  
     391A      9.842453   392A      9.893161   393A     10.004362  
     394A     10.025283   395A     10.085762   396A     10.367827  
     397A     10.384374   398A     10.474950   399A     10.940592  
     400A     11.170859   401A     11.850476   402A     11.884014  
     403A     11.984654   404A     12.517114   405A     12.981087  
     406A     13.440181   407A     14.051525   408A     14.434019  
     409A     17.214295   410A     17.781544   411A     19.036543  
     412A     51.583432   413A     64.602097   414A     68.166514  

    Final Occupation by Irrep:
              A 
    DOCC [    12 ]

  @DF-RHF Final Energy:  -149.14371321701867

   => Energetics <=

    Nuclear Repulsion Energy =             72.3341927987140139
    One-Electron Energy =                -345.0445315804062147
    Two-Electron Energy =                 123.5666255646735294
    Total Energy =                       -149.1437132170186715

Computation Completed


Properties will be evaluated at   0.000000,   0.000000,   0.000000 [a0]

Properties computed using the SCF density matrix

  Nuclear Dipole Moment: [e a0]
     X:    74.5920      Y:    -1.9721      Z:    -0.0000

  Electronic Dipole Moment: [e a0]
     X:   -73.6786      Y:     2.8616      Z:     0.0000

  Dipole Moment: [e a0]
     X:     0.9134      Y:     0.8895      Z:    -0.0000     Total:     1.2750

  Dipole Moment: [D]
     X:     2.3215      Y:     2.2610      Z:    -0.0000     Total:     3.2406


*** tstop() called on node54.bme.utexas.edu at Mon Sep  9 20:36:47 2019
Module time:
	user time   =      34.21 seconds =       0.57 minutes
	system time =       0.69 seconds =       0.01 minutes
	total time  =          9 seconds =       0.15 minutes
Total time:
	user time   =     133.18 seconds =       2.22 minutes
	system time =       2.61 seconds =       0.04 minutes
	total time  =         36 seconds =       0.60 minutes
  Constructing Basis Sets for SAPT...

   => Loading Basis Set <=

    Name: (AUG-CC-PVTZ AUX)
    Role: RIFIT
    Keyword: DF_BASIS_SAPT
    atoms 1, 6              entry C          line   148 file /home/xy3866/psi4conda/share/psi4/basis/aug-cc-pvtz-ri.gbs 
    atoms 2, 5, 7, 9, 11-12 entry H          line    30 file /home/xy3866/psi4conda/share/psi4/basis/aug-cc-pvtz-ri.gbs 
    atoms 3-4               entry O          line   264 file /home/xy3866/psi4conda/share/psi4/basis/aug-cc-pvtz-ri.gbs 
    atoms 8, 10             entry N          line   206 file /home/xy3866/psi4conda/share/psi4/basis/aug-cc-pvtz-ri.gbs 


  //>>>>>>>>>>>>>>>>>>>>>>>>>>>>>>>>>>>//
  //               SAPT2+              //
  //<<<<<<<<<<<<<<<<<<<<<<<<<<<<<<<<<<<//


*** tstart() called on node54.bme.utexas.edu
*** at Mon Sep  9 20:36:48 2019

        SAPT2+  
    Ed Hohenstein
     6 June 2009

      Orbital Information
  --------------------------
    NSO        =       414
    NMO        =       414
    NRI        =       912
    NOCC A     =        12
    NOCC B     =        12
    FOCC A     =         3
    FOCC B     =         3
    NVIR A     =       402
    NVIR B     =       402

    Estimated memory usage: 1737.6 MB

    Natural Orbital Cutoff:   1.000E-06
    Disp(T3) Truncation:            Yes
    CCD (vv|vv) Truncation:         Yes
    MBPT T2 Truncation:             Yes

    Monomer A: 237 virtual orbitals dropped
    Monomer B: 200 virtual orbitals dropped

    Elst10,r            =    -0.056083007832 [Eh]
    Exch10 (S^2)        =     0.056456117732 [Eh]
    Exch10              =     0.057826582892 [Eh]
    Ind20,r (A<-B)      =    -0.010126561350 [Eh]
    Ind20,r (B<-A)      =    -0.023615029763 [Eh]
    Ind20,r             =    -0.033741591114 [Eh]
    Exch-Ind20,r (A<-B) =     0.005310166405 [Eh]
    Exch-Ind20,r (B<-A) =     0.012475268934 [Eh]
    Exch-Ind20,r        =     0.017785435339 [Eh]
    Disp20              =    -0.018067855597 [Eh]
    Disp20 (NO)         =    -0.015811309536 [Eh]
    Exch-Disp20         =     0.003791859604 [Eh]
    Elst12,r            =     0.001401099378 [Eh]
    Exch11              =     0.000745653533 [Eh]
    Exch12              =     0.005663455320 [Eh]
    Ind22               =    -0.003617073602 [Eh]
    Disp21              =     0.001502445300 [Eh]
    Disp22 (SDQ)        =    -0.000205642640 [Eh]

    (i =   1 of   9)         19 seconds
    (i =   2 of   9)         39 seconds
    (i =   3 of   9)         59 seconds
    (i =   4 of   9)         78 seconds
    (i =   5 of   9)         98 seconds
    (i =   6 of   9)        117 seconds
    (i =   7 of   9)        137 seconds
    (i =   8 of   9)        157 seconds
    (i =   9 of   9)        176 seconds

    Disp220 (T)         =    -0.001600072193 [Eh]

    (i =   1 of   9)         25 seconds
    (i =   2 of   9)         51 seconds
    (i =   3 of   9)         77 seconds
    (i =   4 of   9)        102 seconds
    (i =   5 of   9)        128 seconds
    (i =   6 of   9)        153 seconds
    (i =   7 of   9)        179 seconds
    (i =   8 of   9)        205 seconds
    (i =   9 of   9)        230 seconds

    Disp202 (T)         =    -0.001319350876 [Eh]

    Disp22 (T)          =    -0.002919423069 [Eh]

    Est. Disp220 (T)    =    -0.001828430040 [Eh]
    Est. Disp202 (T)    =    -0.001507644959 [Eh]

    Est. Disp22 (T)     =    -0.003336074999 [Eh]

    SAPT Results 
  --------------------------------------------------------------------------------------------------------
    Electrostatics                -54.68190845 [mEh]     -34.31341560 [kcal/mol]    -143.56733087 [kJ/mol]
      Elst10,r                    -56.08300783 [mEh]     -35.19261873 [kcal/mol]    -147.24591678 [kJ/mol]
      Elst12,r                      1.40109938 [mEh]       0.87920313 [kcal/mol]       3.67858591 [kJ/mol]

    Exchange                       64.23569174 [mEh]      40.30850512 [kcal/mol]     168.65078544 [kJ/mol]
      Exch10                       57.82658289 [mEh]      36.28672860 [kcal/mol]     151.82367247 [kJ/mol]
      Exch10(S^2)                  56.45611773 [mEh]      35.42674873 [kcal/mol]     148.22551668 [kJ/mol]
      Exch11(S^2)                   0.74565353 [mEh]       0.46790466 [kcal/mol]       1.95771308 [kJ/mol]
      Exch12(S^2)                   5.66345532 [mEh]       3.55387187 [kcal/mol]      14.86939989 [kJ/mol]

    Induction                     -29.96976504 [mEh]     -18.80631149 [kcal/mol]     -78.68560728 [kJ/mol]
      Ind20,r                     -33.74159111 [mEh]     -21.17316808 [kcal/mol]     -88.58853526 [kJ/mol]
      Ind22                        -3.61707360 [mEh]      -2.26974795 [kcal/mol]      -9.49662543 [kJ/mol]
      Exch-Ind20,r                 17.78543534 [mEh]      11.16052917 [kcal/mol]      46.69565405 [kJ/mol]
      Exch-Ind22                    1.90658551 [mEh]       1.19640047 [kcal/mol]       5.00573956 [kJ/mol]
      delta HF,r (2)              -12.30312117 [mEh]      -7.72032509 [kcal/mol]     -32.30184019 [kJ/mol]

    Dispersion                    -16.31526833 [mEh]     -10.23798545 [kcal/mol]     -42.83573110 [kJ/mol]
      Disp20                      -18.06785560 [mEh]     -11.33775056 [kcal/mol]     -47.43714834 [kJ/mol]
      Disp21                        1.50244530 [mEh]       0.94279866 [kcal/mol]       3.94466959 [kJ/mol]
      Disp22 (SDQ)                 -0.20564264 [mEh]      -0.12904270 [kcal/mol]      -0.53991468 [kJ/mol]
      Disp22 (T)                   -2.91942307 [mEh]      -1.83196563 [kcal/mol]      -7.66494421 [kJ/mol]
      Est. Disp22 (T)              -3.33607500 [mEh]      -2.09341867 [kcal/mol]      -8.75886370 [kJ/mol]
      Exch-Disp20                   3.79185960 [mEh]       2.37942782 [kcal/mol]       9.95552602 [kJ/mol]

  Total HF                        -26.51570189 [mEh]     -16.63885414 [kcal/mol]     -69.61696572 [kJ/mol]
  Total SAPT0                     -40.79169788 [mEh]     -25.59717687 [kcal/mol]    -107.09858804 [kJ/mol]
  Total SAPT2                     -34.69197774 [mEh]     -21.76954470 [kcal/mol]     -91.08377502 [kJ/mol]
  Total SAPT2+                    -36.73125008 [mEh]     -23.04920741 [kcal/mol]     -96.43788381 [kJ/mol]

  Special recipe for scaled SAPT0 (see Manual):
    Electrostatics sSAPT0         -56.08300783 [mEh]     -35.19261873 [kcal/mol]    -147.24591678 [kJ/mol]
    Exchange sSAPT0                57.82658289 [mEh]      36.28672860 [kcal/mol]     151.82367247 [kJ/mol]
    Induction sSAPT0              -26.93236367 [mEh]     -16.90031336 [kcal/mol]     -70.71091108 [kJ/mol]
    Dispersion sSAPT0             -13.99309773 [mEh]      -8.78080139 [kcal/mol]     -36.73887302 [kJ/mol]
  Total sSAPT0                    -39.18188634 [mEh]     -24.58700488 [kcal/mol]    -102.87202841 [kJ/mol]
  --------------------------------------------------------------------------------------------------------

*** tstop() called on node54.bme.utexas.edu at Mon Sep  9 20:46:52 2019
Module time:
	user time   =    2311.64 seconds =      38.53 minutes
	system time =      46.43 seconds =       0.77 minutes
	total time  =        604 seconds =      10.07 minutes
Total time:
	user time   =    2445.14 seconds =      40.75 minutes
	system time =      49.06 seconds =       0.82 minutes
	total time  =        641 seconds =      10.68 minutes

    Psi4 stopped on: Monday, 09 September 2019 08:46PM
    Psi4 wall time for execution: 0:10:41.94

*** Psi4 exiting successfully. Buy a developer a beer!
