
    -----------------------------------------------------------------------
          Psi4: An Open-Source Ab Initio Electronic Structure Package
                               Psi4 1.3.2 release

                         Git: Rev {HEAD} ecbda83 


    R. M. Parrish, L. A. Burns, D. G. A. Smith, A. C. Simmonett,
    A. E. DePrince III, E. G. Hohenstein, U. Bozkaya, A. Yu. Sokolov,
    R. Di Remigio, R. M. Richard, J. F. Gonthier, A. M. James,
    H. R. McAlexander, A. Kumar, M. Saitow, X. Wang, B. P. Pritchard,
    P. Verma, H. F. Schaefer III, K. Patkowski, R. A. King, E. F. Valeev,
    F. A. Evangelista, J. M. Turney, T. D. Crawford, and C. D. Sherrill,
    J. Chem. Theory Comput. 13(7) pp 3185--3197 (2017).
    (doi: 10.1021/acs.jctc.7b00174)


                         Additional Contributions by
    P. Kraus, H. Kruse, M. H. Lechner, M. C. Schieber, R. A. Shaw,
    A. Alenaizan, R. Galvelis, Z. L. Glick, S. Lehtola, and J. P. Misiewicz

    -----------------------------------------------------------------------


    Psi4 started on: Monday, 09 September 2019 05:01PM

    Process ID: 50766
    Host:       node54.bme.utexas.edu
    PSIDATADIR: /home/xy3866/psi4conda/share/psi4
    Memory:     500.0 MiB
    Threads:    4
    
  ==> Input File <==

--------------------------------------------------------------------------
#psi4
#
memory 32 gb

molecule  {
0 1
  C       -2.0482690     0.2828850     0.0000130
  H       -3.1457830     0.3491130    -0.0000080
  O       -1.3512910     1.2933720    -0.0000010
  N       -1.5923150    -0.9782630     0.0000040
  H       -0.5837530    -1.1752650     0.0000030
  H       -2.2528990    -1.7321960    -0.0000070
--
0 1
  C        2.0621080    -0.2554320     0.0000040
  H        3.1520200    -0.2817000     0.0000000
  N        1.3302020    -1.3170910     0.0000020
  H        1.9299670    -2.1334100    -0.0000040
  N        1.5499330     0.9895100     0.0000000
  H        0.5432930     1.1394860    -0.0000010
  H        2.1658200     1.7770630    -0.0000050
units angstrom
no_reorient  #important for SAPT in psi4, default
symmetry c1  #important for SAPT in psi4, default
}

set {
basis aug-cc-pVTZ
scf_type DF
freeze_core True
}
energy('sapt2+')
--------------------------------------------------------------------------

  Memory set to  29.802 GiB by Python driver.

  //>>>>>>>>>>>>>>>>>>>>>>>>>>>>>>>>>>>//
  //              Dimer HF             //
  //<<<<<<<<<<<<<<<<<<<<<<<<<<<<<<<<<<<//


*** tstart() called on node54.bme.utexas.edu
*** at Mon Sep  9 17:01:26 2019

   => Loading Basis Set <=

    Name: AUG-CC-PVTZ
    Role: ORBITAL
    Keyword: BASIS
    atoms 1, 7                 entry C          line   235 file /home/xy3866/psi4conda/share/psi4/basis/aug-cc-pvtz.gbs 
    atoms 2, 5-6, 8, 10, 12-13 entry H          line    36 file /home/xy3866/psi4conda/share/psi4/basis/aug-cc-pvtz.gbs 
    atoms 3                    entry O          line   327 file /home/xy3866/psi4conda/share/psi4/basis/aug-cc-pvtz.gbs 
    atoms 4, 9, 11             entry N          line   281 file /home/xy3866/psi4conda/share/psi4/basis/aug-cc-pvtz.gbs 


         ---------------------------------------------------------
                                   SCF
               by Justin Turney, Rob Parrish, Andy Simmonett
                          and Daniel G. A. Smith
                              RHF Reference
                        4 Threads,  30517 MiB Core
         ---------------------------------------------------------

  ==> Geometry <==

    Molecular point group: c1
    Full point group: C1

    Geometry (in Angstrom), charge = 0, multiplicity = 1:

       Center              X                  Y                   Z               Mass       
    ------------   -----------------  -----------------  -----------------  -----------------
         C           -2.030399260614     0.275496899830     0.000010194538    12.000000000000
         H           -3.127913260614     0.341724899830    -0.000010805462     1.007825032230
         O           -1.333421260614     1.285983899830    -0.000003805462    15.994914619570
         N           -1.574445260614    -0.985651100170     0.000001194538    14.003074004430
         H           -0.565883260614    -1.182653100170     0.000000194538     1.007825032230
         H           -2.235029260614    -1.739584100170    -0.000009805462     1.007825032230
         C            2.079977739386    -0.262820100170     0.000001194538    12.000000000000
         H            3.169889739386    -0.289088100170    -0.000002805462     1.007825032230
         N            1.348071739386    -1.324479100170    -0.000000805462    14.003074004430
         H            1.947836739386    -2.140798100170    -0.000006805462     1.007825032230
         N            1.567802739386     0.982121899830    -0.000002805462    14.003074004430
         H            0.561162739386     1.132097899830    -0.000003805462     1.007825032230
         H            2.183689739386     1.769674899830    -0.000007805462     1.007825032230

  Running in c1 symmetry.

  Rotational constants: A =      0.18459  B =      0.06460  C =      0.04785 [cm^-1]
  Rotational constants: A =   5533.74481  B =   1936.58331  C =   1434.54982 [MHz]
  Nuclear repulsion =  229.222028121353304

  Charge       = 0
  Multiplicity = 1
  Electrons    = 48
  Nalpha       = 24
  Nbeta        = 24

  ==> Algorithm <==

  SCF Algorithm Type is DF.
  DIIS enabled.
  MOM disabled.
  Fractional occupation disabled.
  Guess Type is SAD.
  Energy threshold   = 1.00e-08
  Density threshold  = 1.00e-08
  Integral threshold = 0.00e+00

  ==> Primary Basis <==

  Basis Set: AUG-CC-PVTZ
    Blend: AUG-CC-PVTZ
    Number of shells: 147
    Number of basis function: 437
    Number of Cartesian functions: 505
    Spherical Harmonics?: true
    Max angular momentum: 3

   => Loading Basis Set <=

    Name: (AUG-CC-PVTZ AUX)
    Role: JKFIT
    Keyword: DF_BASIS_SCF
    atoms 1, 7                 entry C          line   162 file /home/xy3866/psi4conda/share/psi4/basis/aug-cc-pvtz-jkfit.gbs 
    atoms 2, 5-6, 8, 10, 12-13 entry H          line    70 file /home/xy3866/psi4conda/share/psi4/basis/aug-cc-pvtz-jkfit.gbs 
    atoms 3                    entry O          line   286 file /home/xy3866/psi4conda/share/psi4/basis/aug-cc-pvtz-jkfit.gbs 
    atoms 4, 9, 11             entry N          line   224 file /home/xy3866/psi4conda/share/psi4/basis/aug-cc-pvtz-jkfit.gbs 

  ==> Pre-Iterations <==

   -------------------------------------------------------
    Irrep   Nso     Nmo     Nalpha   Nbeta   Ndocc  Nsocc
   -------------------------------------------------------
     A        437     437       0       0       0       0
   -------------------------------------------------------
    Total     437     437      24      24      24       0
   -------------------------------------------------------

  ==> Integral Setup <==

  ==> DiskDFJK: Density-Fitted J/K Matrices <==

    J tasked:                  Yes
    K tasked:                  Yes
    wK tasked:                  No
    OpenMP threads:              4
    Integrals threads:           4
    Memory [MiB]:            22888
    Algorithm:                Core
    Integral Cache:           SAVE
    Schwarz Cutoff:          1E-12
    Fitting Condition:       1E-10

   => Auxiliary Basis Set <=

  Basis Set: (AUG-CC-PVTZ AUX)
    Blend: AUG-CC-PVTZ-JKFIT
    Number of shells: 278
    Number of basis function: 946
    Number of Cartesian functions: 1171
    Spherical Harmonics?: true
    Max angular momentum: 4

  Minimum eigenvalue in the overlap matrix is 2.5872780217E-05.
  Using Symmetric Orthogonalization.

  SCF Guess: Superposition of Atomic Densities via on-the-fly atomic UHF.

  ==> Iterations <==

                           Total Energy        Delta E     RMS |[F,P]|

   @DF-RHF iter SAD:  -316.82327641478167   -3.16823e+02   0.00000e+00 
   @DF-RHF iter   1:  -317.92658982777670   -1.10331e+00   1.67449e-03 DIIS
   @DF-RHF iter   2:  -318.09483314072190   -1.68243e-01   9.89309e-04 DIIS
   @DF-RHF iter   3:  -318.16188499360817   -6.70519e-02   1.50768e-04 DIIS
   @DF-RHF iter   4:  -318.16433622930867   -2.45124e-03   6.97269e-05 DIIS
   @DF-RHF iter   5:  -318.16481769409074   -4.81465e-04   1.35380e-05 DIIS
   @DF-RHF iter   6:  -318.16486340578513   -4.57117e-05   6.48241e-06 DIIS
   @DF-RHF iter   7:  -318.16487338240967   -9.97662e-06   2.73678e-06 DIIS
   @DF-RHF iter   8:  -318.16487554641651   -2.16401e-06   1.01737e-06 DIIS
   @DF-RHF iter   9:  -318.16487581490003   -2.68484e-07   4.15099e-07 DIIS
   @DF-RHF iter  10:  -318.16487585810228   -4.32022e-08   1.32079e-07 DIIS
   @DF-RHF iter  11:  -318.16487586244443   -4.34216e-09   3.90466e-08 DIIS
   @DF-RHF iter  12:  -318.16487586282790   -3.83466e-10   9.57318e-09 DIIS
  Energy and wave function converged.


  ==> Post-Iterations <==

    Orbital Energies [Eh]
    ---------------------

    Doubly Occupied:                                                      

       1A    -20.521475     2A    -15.571114     3A    -15.562918  
       4A    -15.523531     5A    -11.348197     6A    -11.318995  
       7A     -1.374600     8A     -1.254653     9A     -1.205197  
      10A     -1.138035    11A     -0.843548    12A     -0.820390  
      13A     -0.744153    14A     -0.732756    15A     -0.679988  
      16A     -0.627049    17A     -0.614181    18A     -0.596669  
      19A     -0.562217    20A     -0.524249    21A     -0.448062  
      22A     -0.418241    23A     -0.407915    24A     -0.359591  

    Virtual:                                                              

      25A      0.026988    26A      0.031320    27A      0.039252  
      28A      0.050020    29A      0.055872    30A      0.074244  
      31A      0.079225    32A      0.086051    33A      0.089818  
      34A      0.106582    35A      0.121722    36A      0.128633  
      37A      0.133604    38A      0.134900    39A      0.138570  
      40A      0.145660    41A      0.149146    42A      0.155244  
      43A      0.163208    44A      0.173356    45A      0.176006  
      46A      0.190889    47A      0.201735    48A      0.206315  
      49A      0.212548    50A      0.217582    51A      0.248689  
      52A      0.252307    53A      0.256000    54A      0.261333  
      55A      0.274036    56A      0.281150    57A      0.288697  
      58A      0.297122    59A      0.300295    60A      0.309987  
      61A      0.318992    62A      0.321169    63A      0.326350  
      64A      0.328378    65A      0.341853    66A      0.351703  
      67A      0.364282    68A      0.366560    69A      0.368458  
      70A      0.379999    71A      0.388010    72A      0.389553  
      73A      0.397843    74A      0.400456    75A      0.415361  
      76A      0.421806    77A      0.426855    78A      0.439494  
      79A      0.443567    80A      0.446315    81A      0.450411  
      82A      0.458364    83A      0.468910    84A      0.497321  
      85A      0.497711    86A      0.506828    87A      0.525685  
      88A      0.536859    89A      0.539184    90A      0.539993  
      91A      0.553224    92A      0.571029    93A      0.574613  
      94A      0.577914    95A      0.591660    96A      0.603995  
      97A      0.614275    98A      0.629204    99A      0.636713  
     100A      0.640529   101A      0.659595   102A      0.669568  
     103A      0.675953   104A      0.686897   105A      0.689417  
     106A      0.690472   107A      0.703773   108A      0.725243  
     109A      0.737620   110A      0.741951   111A      0.758139  
     112A      0.769825   113A      0.773913   114A      0.779778  
     115A      0.780498   116A      0.798895   117A      0.811660  
     118A      0.846615   119A      0.853592   120A      0.859627  
     121A      0.865801   122A      0.880879   123A      0.891804  
     124A      0.912385   125A      0.914070   126A      0.921029  
     127A      0.921381   128A      0.934496   129A      0.935289  
     130A      0.936793   131A      0.944888   132A      0.949979  
     133A      0.968596   134A      0.979305   135A      0.985969  
     136A      0.989065   137A      0.989747   138A      1.006783  
     139A      1.022141   140A      1.033765   141A      1.039817  
     142A      1.052024   143A      1.060415   144A      1.060711  
     145A      1.081923   146A      1.085680   147A      1.094522  
     148A      1.104988   149A      1.116464   150A      1.126281  
     151A      1.128590   152A      1.136263   153A      1.146934  
     154A      1.160465   155A      1.160709   156A      1.193157  
     157A      1.193797   158A      1.200371   159A      1.215842  
     160A      1.236811   161A      1.240396   162A      1.247851  
     163A      1.258646   164A      1.260803   165A      1.277172  
     166A      1.292032   167A      1.297621   168A      1.317820  
     169A      1.318230   170A      1.346043   171A      1.350034  
     172A      1.367100   173A      1.368483   174A      1.377702  
     175A      1.397671   176A      1.399611   177A      1.420230  
     178A      1.423263   179A      1.435018   180A      1.448776  
     181A      1.460119   182A      1.467099   183A      1.474850  
     184A      1.480729   185A      1.482830   186A      1.489029  
     187A      1.507730   188A      1.513073   189A      1.525296  
     190A      1.532792   191A      1.566971   192A      1.567755  
     193A      1.578888   194A      1.607127   195A      1.618795  
     196A      1.623147   197A      1.645383   198A      1.648051  
     199A      1.684077   200A      1.693049   201A      1.701440  
     202A      1.724642   203A      1.740367   204A      1.750990  
     205A      1.769955   206A      1.793432   207A      1.812118  
     208A      1.817290   209A      1.849710   210A      1.891214  
     211A      1.892509   212A      1.914459   213A      1.960367  
     214A      1.974071   215A      1.985302   216A      2.002476  
     217A      2.017075   218A      2.025066   219A      2.055782  
     220A      2.072959   221A      2.074570   222A      2.088754  
     223A      2.123072   224A      2.124720   225A      2.138691  
     226A      2.159038   227A      2.178777   228A      2.183426  
     229A      2.204151   230A      2.210255   231A      2.222850  
     232A      2.243992   233A      2.254244   234A      2.275306  
     235A      2.318587   236A      2.331057   237A      2.337950  
     238A      2.372335   239A      2.376479   240A      2.410968  
     241A      2.423761   242A      2.440232   243A      2.452493  
     244A      2.455292   245A      2.480745   246A      2.496916  
     247A      2.528521   248A      2.545093   249A      2.565253  
     250A      2.565485   251A      2.575739   252A      2.600557  
     253A      2.632779   254A      2.635871   255A      2.667671  
     256A      2.675016   257A      2.676393   258A      2.682431  
     259A      2.692140   260A      2.706312   261A      2.726329  
     262A      2.753049   263A      2.778145   264A      2.803638  
     265A      2.843380   266A      2.854039   267A      2.920109  
     268A      2.935535   269A      2.942219   270A      2.969290  
     271A      3.028395   272A      3.082598   273A      3.094634  
     274A      3.121470   275A      3.176669   276A      3.200035  
     277A      3.220608   278A      3.272345   279A      3.313063  
     280A      3.388847   281A      3.396171   282A      3.410598  
     283A      3.450100   284A      3.452705   285A      3.489157  
     286A      3.583799   287A      3.589450   288A      3.630789  
     289A      3.649660   290A      3.692343   291A      3.702548  
     292A      3.724102   293A      3.776925   294A      3.814447  
     295A      3.824861   296A      3.839066   297A      3.843521  
     298A      3.894692   299A      3.901100   300A      3.939030  
     301A      3.989991   302A      4.041054   303A      4.071898  
     304A      4.087678   305A      4.096562   306A      4.108403  
     307A      4.114036   308A      4.136588   309A      4.147793  
     310A      4.181739   311A      4.193454   312A      4.205062  
     313A      4.213521   314A      4.215338   315A      4.242209  
     316A      4.245870   317A      4.286186   318A      4.297416  
     319A      4.323172   320A      4.331783   321A      4.349950  
     322A      4.380024   323A      4.389888   324A      4.397294  
     325A      4.398637   326A      4.440620   327A      4.448642  
     328A      4.463605   329A      4.521713   330A      4.523403  
     331A      4.565578   332A      4.574335   333A      4.588772  
     334A      4.620027   335A      4.627419   336A      4.687953  
     337A      4.700581   338A      4.706043   339A      4.723718  
     340A      4.776547   341A      4.776815   342A      4.792520  
     343A      4.821167   344A      4.856411   345A      4.862704  
     346A      4.879863   347A      4.905217   348A      4.915051  
     349A      4.916276   350A      4.937322   351A      4.944527  
     352A      4.968911   353A      4.998017   354A      5.019476  
     355A      5.049867   356A      5.102000   357A      5.116850  
     358A      5.131404   359A      5.179623   360A      5.198058  
     361A      5.200920   362A      5.239309   363A      5.240747  
     364A      5.247891   365A      5.256597   366A      5.318252  
     367A      5.365263   368A      5.391123   369A      5.434895  
     370A      5.477647   371A      5.482747   372A      5.501999  
     373A      5.514141   374A      5.534850   375A      5.594543  
     376A      5.600703   377A      5.620978   378A      5.638859  
     379A      5.647120   380A      5.700946   381A      5.701790  
     382A      5.720715   383A      5.745924   384A      5.755134  
     385A      5.801755   386A      5.817559   387A      5.836421  
     388A      5.872169   389A      5.904823   390A      5.960672  
     391A      5.967667   392A      6.046396   393A      6.116166  
     394A      6.120574   395A      6.137093   396A      6.160535  
     397A      6.167686   398A      6.216783   399A      6.228170  
     400A      6.277536   401A      6.338377   402A      6.411918  
     403A      6.429711   404A      6.484398   405A      6.571475  
     406A      6.579543   407A      6.668519   408A      6.684613  
     409A      6.726995   410A      6.868903   411A      6.903582  
     412A      6.922313   413A      7.032204   414A      7.058378  
     415A      7.063987   416A      7.112083   417A      7.170917  
     418A      7.278102   419A      7.327460   420A      7.361075  
     421A      7.425014   422A      7.515392   423A      7.587439  
     424A      7.637029   425A      7.670790   426A      7.692299  
     427A      7.781871   428A      7.799483   429A      7.962543  
     430A      8.081747   431A      8.193700   432A     15.900282  
     433A     17.198503   434A     17.475598   435A     17.796251  
     436A     18.835729   437A     19.089333  

    Final Occupation by Irrep:
              A 
    DOCC [    24 ]

  @DF-RHF Final Energy:  -318.16487586282790

   => Energetics <=

    Nuclear Repulsion Energy =            229.2220281213533042
    One-Electron Energy =                -888.3783588425404787
    Two-Electron Energy =                 340.9914548583592477
    Total Energy =                       -318.1648758628278983

Computation Completed


Properties will be evaluated at   0.000000,   0.000000,   0.000000 [a0]

Properties computed using the SCF density matrix

  Nuclear Dipole Moment: [e a0]
     X:     1.8025      Y:    -1.9667      Z:    -0.0000

  Electronic Dipole Moment: [e a0]
     X:    -1.4269      Y:     1.3064      Z:     0.0000

  Dipole Moment: [e a0]
     X:     0.3756      Y:    -0.6604      Z:    -0.0000     Total:     0.7597

  Dipole Moment: [D]
     X:     0.9546      Y:    -1.6784      Z:    -0.0000     Total:     1.9309


*** tstop() called on node54.bme.utexas.edu at Mon Sep  9 17:01:47 2019
Module time:
	user time   =      74.63 seconds =       1.24 minutes
	system time =       1.48 seconds =       0.02 minutes
	total time  =         21 seconds =       0.35 minutes
Total time:
	user time   =      74.63 seconds =       1.24 minutes
	system time =       1.48 seconds =       0.02 minutes
	total time  =         21 seconds =       0.35 minutes

  //>>>>>>>>>>>>>>>>>>>>>>>>>>>>>>>>>>>//
  //            Monomer A HF           //
  //<<<<<<<<<<<<<<<<<<<<<<<<<<<<<<<<<<<//


*** tstart() called on node54.bme.utexas.edu
*** at Mon Sep  9 17:01:47 2019

   => Loading Basis Set <=

    Name: AUG-CC-PVTZ
    Role: ORBITAL
    Keyword: BASIS
    atoms 1, 7                 entry C          line   235 file /home/xy3866/psi4conda/share/psi4/basis/aug-cc-pvtz.gbs 
    atoms 2, 5-6, 8, 10, 12-13 entry H          line    36 file /home/xy3866/psi4conda/share/psi4/basis/aug-cc-pvtz.gbs 
    atoms 3                    entry O          line   327 file /home/xy3866/psi4conda/share/psi4/basis/aug-cc-pvtz.gbs 
    atoms 4, 9, 11             entry N          line   281 file /home/xy3866/psi4conda/share/psi4/basis/aug-cc-pvtz.gbs 


         ---------------------------------------------------------
                                   SCF
               by Justin Turney, Rob Parrish, Andy Simmonett
                          and Daniel G. A. Smith
                              RHF Reference
                        4 Threads,  30517 MiB Core
         ---------------------------------------------------------

  ==> Geometry <==

    Molecular point group: c1
    Full point group: C1

    Geometry (in Angstrom), charge = 0, multiplicity = 1:

       Center              X                  Y                   Z               Mass       
    ------------   -----------------  -----------------  -----------------  -----------------
         C           -2.030399260614     0.275496899830     0.000010194538    12.000000000000
         H           -3.127913260614     0.341724899830    -0.000010805462     1.007825032230
         O           -1.333421260614     1.285983899830    -0.000003805462    15.994914619570
         N           -1.574445260614    -0.985651100170     0.000001194538    14.003074004430
         H           -0.565883260614    -1.182653100170     0.000000194538     1.007825032230
         H           -2.235029260614    -1.739584100170    -0.000009805462     1.007825032230
      Gh(C)           2.079977739386    -0.262820100170     0.000001194538    12.000000000000
      Gh(H)           3.169889739386    -0.289088100170    -0.000002805462     1.007825032230
      Gh(N)           1.348071739386    -1.324479100170    -0.000000805462    14.003074004430
      Gh(H)           1.947836739386    -2.140798100170    -0.000006805462     1.007825032230
      Gh(N)           1.567802739386     0.982121899830    -0.000002805462    14.003074004430
      Gh(H)           0.561162739386     1.132097899830    -0.000003805462     1.007825032230
      Gh(H)           2.183689739386     1.769674899830    -0.000007805462     1.007825032230

  Running in c1 symmetry.

  Rotational constants: A =      0.18459  B =      0.06460  C =      0.04785 [cm^-1]
  Rotational constants: A =   5533.74481  B =   1936.58331  C =   1434.54982 [MHz]
  Nuclear repulsion =   71.120500652173703

  Charge       = 0
  Multiplicity = 1
  Electrons    = 24
  Nalpha       = 12
  Nbeta        = 12

  ==> Algorithm <==

  SCF Algorithm Type is DF.
  DIIS enabled.
  MOM disabled.
  Fractional occupation disabled.
  Guess Type is SAD.
  Energy threshold   = 1.00e-08
  Density threshold  = 1.00e-08
  Integral threshold = 0.00e+00

  ==> Primary Basis <==

  Basis Set: AUG-CC-PVTZ
    Blend: AUG-CC-PVTZ
    Number of shells: 147
    Number of basis function: 437
    Number of Cartesian functions: 505
    Spherical Harmonics?: true
    Max angular momentum: 3

   => Loading Basis Set <=

    Name: (AUG-CC-PVTZ AUX)
    Role: JKFIT
    Keyword: DF_BASIS_SCF
    atoms 1, 7                 entry C          line   162 file /home/xy3866/psi4conda/share/psi4/basis/aug-cc-pvtz-jkfit.gbs 
    atoms 2, 5-6, 8, 10, 12-13 entry H          line    70 file /home/xy3866/psi4conda/share/psi4/basis/aug-cc-pvtz-jkfit.gbs 
    atoms 3                    entry O          line   286 file /home/xy3866/psi4conda/share/psi4/basis/aug-cc-pvtz-jkfit.gbs 
    atoms 4, 9, 11             entry N          line   224 file /home/xy3866/psi4conda/share/psi4/basis/aug-cc-pvtz-jkfit.gbs 

  ==> Pre-Iterations <==

   -------------------------------------------------------
    Irrep   Nso     Nmo     Nalpha   Nbeta   Ndocc  Nsocc
   -------------------------------------------------------
     A        437     437       0       0       0       0
   -------------------------------------------------------
    Total     437     437      12      12      12       0
   -------------------------------------------------------

  ==> Integral Setup <==

  ==> DiskDFJK: Density-Fitted J/K Matrices <==

    J tasked:                  Yes
    K tasked:                  Yes
    wK tasked:                  No
    OpenMP threads:              4
    Integrals threads:           4
    Memory [MiB]:            22888
    Algorithm:                Core
    Integral Cache:           LOAD
    Schwarz Cutoff:          1E-12
    Fitting Condition:       1E-10

   => Auxiliary Basis Set <=

  Basis Set: (AUG-CC-PVTZ AUX)
    Blend: AUG-CC-PVTZ-JKFIT
    Number of shells: 278
    Number of basis function: 946
    Number of Cartesian functions: 1171
    Spherical Harmonics?: true
    Max angular momentum: 4

  Minimum eigenvalue in the overlap matrix is 2.5872780217E-05.
  Using Symmetric Orthogonalization.

  SCF Guess: Superposition of Atomic Densities via on-the-fly atomic UHF.

  ==> Iterations <==

                           Total Energy        Delta E     RMS |[F,P]|

   @DF-RHF iter SAD:  -168.19954668814609   -1.68200e+02   0.00000e+00 
   @DF-RHF iter   1:  -168.87900993994140   -6.79463e-01   1.22476e-03 DIIS
   @DF-RHF iter   2:  -168.95713699890121   -7.81271e-02   8.38008e-04 DIIS
   @DF-RHF iter   3:  -169.00100194883055   -4.38649e-02   1.20127e-04 DIIS
   @DF-RHF iter   4:  -169.00244722391022   -1.44528e-03   5.20268e-05 DIIS
   @DF-RHF iter   5:  -169.00275276743250   -3.05544e-04   1.04694e-05 DIIS
   @DF-RHF iter   6:  -169.00278326012290   -3.04927e-05   4.99542e-06 DIIS
   @DF-RHF iter   7:  -169.00278967159909   -6.41148e-06   2.01057e-06 DIIS
   @DF-RHF iter   8:  -169.00279079335695   -1.12176e-06   6.08635e-07 DIIS
   @DF-RHF iter   9:  -169.00279089891097   -1.05554e-07   1.67907e-07 DIIS
   @DF-RHF iter  10:  -169.00279090721543   -8.30445e-09   4.14430e-08 DIIS
   @DF-RHF iter  11:  -169.00279090762876   -4.13337e-10   7.43158e-09 DIIS
  Energy and wave function converged.


  ==> Post-Iterations <==

    Orbital Energies [Eh]
    ---------------------

    Doubly Occupied:                                                      

       1A    -20.526735     2A    -15.602869     3A    -11.356504  
       4A     -1.376569     5A     -1.226898     6A     -0.853748  
       7A     -0.755409     8A     -0.676732     9A     -0.602582  
      10A     -0.571858    11A     -0.434962    12A     -0.422017  

    Virtual:                                                              

      13A      0.017398    14A      0.028808    15A      0.038326  
      16A      0.050343    17A      0.055086    18A      0.070398  
      19A      0.072523    20A      0.086413    21A      0.086694  
      22A      0.088834    23A      0.107078    24A      0.114246  
      25A      0.121642    26A      0.127535    27A      0.133351  
      28A      0.139004    29A      0.145482    30A      0.149824  
      31A      0.158727    32A      0.167666    33A      0.169551  
      34A      0.186553    35A      0.191241    36A      0.198594  
      37A      0.209716    38A      0.217870    39A      0.243176  
      40A      0.249895    41A      0.255358    42A      0.255845  
      43A      0.266862    44A      0.276843    45A      0.289825  
      46A      0.291552    47A      0.292678    48A      0.306538  
      49A      0.310076    50A      0.320642    51A      0.328151  
      52A      0.339139    53A      0.346810    54A      0.348517  
      55A      0.357594    56A      0.359472    57A      0.363105  
      58A      0.370701    59A      0.375443    60A      0.386589  
      61A      0.387557    62A      0.394513    63A      0.405770  
      64A      0.416435    65A      0.425072    66A      0.427995  
      67A      0.432972    68A      0.435596    69A      0.443381  
      70A      0.452771    71A      0.466033    72A      0.479845  
      73A      0.492471    74A      0.501817    75A      0.512824  
      76A      0.529602    77A      0.536727    78A      0.550720  
      79A      0.564789    80A      0.565130    81A      0.577350  
      82A      0.586817    83A      0.598817    84A      0.619343  
      85A      0.623928    86A      0.635927    87A      0.636387  
      88A      0.645266    89A      0.650698    90A      0.661508  
      91A      0.691465    92A      0.704741    93A      0.713673  
      94A      0.740632    95A      0.744871    96A      0.755471  
      97A      0.762671    98A      0.780078    99A      0.780775  
     100A      0.786825   101A      0.789546   102A      0.795823  
     103A      0.804951   104A      0.812126   105A      0.825584  
     106A      0.826205   107A      0.854448   108A      0.860983  
     109A      0.881743   110A      0.885514   111A      0.888979  
     112A      0.892350   113A      0.901418   114A      0.909331  
     115A      0.922838   116A      0.922962   117A      0.930781  
     118A      0.937401   119A      0.955171   120A      0.966036  
     121A      0.975145   122A      0.978003   123A      1.005406  
     124A      1.008011   125A      1.019844   126A      1.032785  
     127A      1.039376   128A      1.043857   129A      1.051757  
     130A      1.056653   131A      1.075409   132A      1.078286  
     133A      1.081461   134A      1.095368   135A      1.101366  
     136A      1.109242   137A      1.123658   138A      1.125656  
     139A      1.143752   140A      1.149183   141A      1.169912  
     142A      1.176393   143A      1.177619   144A      1.193832  
     145A      1.208170   146A      1.228900   147A      1.232458  
     148A      1.247091   149A      1.259805   150A      1.262675  
     151A      1.288962   152A      1.307189   153A      1.320827  
     154A      1.321797   155A      1.323662   156A      1.340552  
     157A      1.349836   158A      1.367368   159A      1.380651  
     160A      1.399671   161A      1.414476   162A      1.432023  
     163A      1.438726   164A      1.449656   165A      1.457775  
     166A      1.465872   167A      1.486899   168A      1.498666  
     169A      1.506086   170A      1.509560   171A      1.521209  
     172A      1.545526   173A      1.559900   174A      1.573003  
     175A      1.574539   176A      1.602188   177A      1.625186  
     178A      1.626533   179A      1.640200   180A      1.647772  
     181A      1.647820   182A      1.671139   183A      1.675262  
     184A      1.680612   185A      1.699456   186A      1.715350  
     187A      1.728788   188A      1.736625   189A      1.741302  
     190A      1.752724   191A      1.762377   192A      1.772517  
     193A      1.794353   194A      1.804291   195A      1.807180  
     196A      1.816579   197A      1.831779   198A      1.844439  
     199A      1.900075   200A      1.909197   201A      1.937193  
     202A      1.953795   203A      1.978921   204A      2.001848  
     205A      2.006920   206A      2.026868   207A      2.034412  
     208A      2.067445   209A      2.084196   210A      2.088166  
     211A      2.106919   212A      2.132385   213A      2.147236  
     214A      2.165388   215A      2.191874   216A      2.241349  
     217A      2.256150   218A      2.271634   219A      2.301731  
     220A      2.313241   221A      2.330861   222A      2.344886  
     223A      2.348065   224A      2.375160   225A      2.376128  
     226A      2.400639   227A      2.418241   228A      2.438410  
     229A      2.439758   230A      2.473902   231A      2.484895  
     232A      2.504209   233A      2.536718   234A      2.554827  
     235A      2.556328   236A      2.562679   237A      2.605951  
     238A      2.610311   239A      2.627380   240A      2.641029  
     241A      2.676513   242A      2.696745   243A      2.719232  
     244A      2.725351   245A      2.741991   246A      2.756761  
     247A      2.774155   248A      2.797619   249A      2.828189  
     250A      2.829641   251A      2.855593   252A      2.870943  
     253A      2.922228   254A      2.954151   255A      2.963761  
     256A      2.980804   257A      2.993269   258A      3.011502  
     259A      3.042450   260A      3.066076   261A      3.100182  
     262A      3.146820   263A      3.164240   264A      3.180794  
     265A      3.186440   266A      3.197007   267A      3.275369  
     268A      3.294165   269A      3.356297   270A      3.367231  
     271A      3.423217   272A      3.424225   273A      3.467622  
     274A      3.503129   275A      3.536574   276A      3.581192  
     277A      3.616541   278A      3.651798   279A      3.708874  
     280A      3.743535   281A      3.813748   282A      3.847734  
     283A      3.851322   284A      3.884362   285A      3.936149  
     286A      4.064046   287A      4.066563   288A      4.098677  
     289A      4.107044   290A      4.113439   291A      4.167732  
     292A      4.167957   293A      4.189884   294A      4.198118  
     295A      4.226724   296A      4.236350   297A      4.306736  
     298A      4.352830   299A      4.373325   300A      4.412870  
     301A      4.428297   302A      4.433044   303A      4.436241  
     304A      4.449814   305A      4.478716   306A      4.516186  
     307A      4.524798   308A      4.552157   309A      4.574800  
     310A      4.628201   311A      4.657646   312A      4.658740  
     313A      4.698220   314A      4.701254   315A      4.739019  
     316A      4.757394   317A      4.771982   318A      4.810864  
     319A      4.845650   320A      4.854043   321A      4.866324  
     322A      4.866778   323A      4.887577   324A      4.900015  
     325A      4.911292   326A      4.933231   327A      4.940371  
     328A      4.977915   329A      4.989949   330A      5.024423  
     331A      5.025684   332A      5.053357   333A      5.078951  
     334A      5.108891   335A      5.116512   336A      5.198811  
     337A      5.199490   338A      5.208006   339A      5.231265  
     340A      5.236667   341A      5.256523   342A      5.305708  
     343A      5.307870   344A      5.328862   345A      5.354785  
     346A      5.373228   347A      5.379583   348A      5.421934  
     349A      5.449729   350A      5.479505   351A      5.493090  
     352A      5.503143   353A      5.563763   354A      5.597258  
     355A      5.638404   356A      5.650648   357A      5.711323  
     358A      5.749829   359A      5.770888   360A      5.829146  
     361A      5.850458   362A      5.877701   363A      5.928004  
     364A      5.991361   365A      6.017730   366A      6.025432  
     367A      6.059566   368A      6.113850   369A      6.158408  
     370A      6.191948   371A      6.232608   372A      6.269216  
     373A      6.288205   374A      6.338406   375A      6.383584  
     376A      6.411432   377A      6.427819   378A      6.453607  
     379A      6.511140   380A      6.568460   381A      6.595979  
     382A      6.611076   383A      6.642679   384A      6.686131  
     385A      6.729541   386A      6.791494   387A      6.870124  
     388A      6.893783   389A      6.907882   390A      6.912435  
     391A      6.969980   392A      7.037569   393A      7.104244  
     394A      7.116288   395A      7.172834   396A      7.238724  
     397A      7.277209   398A      7.326523   399A      7.354185  
     400A      7.386736   401A      7.401576   402A      7.436932  
     403A      7.585371   404A      7.608979   405A      7.633506  
     406A      7.662590   407A      7.668140   408A      7.669462  
     409A      7.751274   410A      7.752496   411A      7.798148  
     412A      7.952357   413A      7.967812   414A      8.001024  
     415A      8.066923   416A      8.266509   417A      8.331790  
     418A      8.499203   419A      8.591926   420A      9.010286  
     421A      9.330370   422A      9.434905   423A      9.460476  
     424A      9.534551   425A     10.178073   426A     10.762950  
     427A     11.229326   428A     11.639494   429A     11.749862  
     430A     12.099494   431A     12.921580   432A     15.962299  
     433A     17.642242   434A     18.811242   435A     51.693040  
     436A     59.460022   437A     62.749220  

    Final Occupation by Irrep:
              A 
    DOCC [    12 ]

  @DF-RHF Final Energy:  -169.00279090762876

   => Energetics <=

    Nuclear Repulsion Energy =             71.1205006521737033
    One-Electron Energy =                -371.4328165358508045
    Two-Electron Energy =                 131.3095249760483512
    Total Energy =                       -169.0027909076287642

Computation Completed


Properties will be evaluated at   0.000000,   0.000000,   0.000000 [a0]

Properties computed using the SCF density matrix

  Nuclear Dipole Moment: [e a0]
     X:   -75.2105      Y:     4.6502      Z:     0.0000

  Electronic Dipole Moment: [e a0]
     X:    74.6303      Y:    -6.3102      Z:    -0.0000

  Dipole Moment: [e a0]
     X:    -0.5803      Y:    -1.6600      Z:     0.0000     Total:     1.7585

  Dipole Moment: [D]
     X:    -1.4749      Y:    -4.2192      Z:     0.0000     Total:     4.4696


*** tstop() called on node54.bme.utexas.edu at Mon Sep  9 17:01:59 2019
Module time:
	user time   =      42.82 seconds =       0.71 minutes
	system time =       0.81 seconds =       0.01 minutes
	total time  =         12 seconds =       0.20 minutes
Total time:
	user time   =     117.47 seconds =       1.96 minutes
	system time =       2.29 seconds =       0.04 minutes
	total time  =         33 seconds =       0.55 minutes

  //>>>>>>>>>>>>>>>>>>>>>>>>>>>>>>>>>>>//
  //            Monomer B HF           //
  //<<<<<<<<<<<<<<<<<<<<<<<<<<<<<<<<<<<//


*** tstart() called on node54.bme.utexas.edu
*** at Mon Sep  9 17:01:59 2019

   => Loading Basis Set <=

    Name: AUG-CC-PVTZ
    Role: ORBITAL
    Keyword: BASIS
    atoms 1, 7                 entry C          line   235 file /home/xy3866/psi4conda/share/psi4/basis/aug-cc-pvtz.gbs 
    atoms 2, 5-6, 8, 10, 12-13 entry H          line    36 file /home/xy3866/psi4conda/share/psi4/basis/aug-cc-pvtz.gbs 
    atoms 3                    entry O          line   327 file /home/xy3866/psi4conda/share/psi4/basis/aug-cc-pvtz.gbs 
    atoms 4, 9, 11             entry N          line   281 file /home/xy3866/psi4conda/share/psi4/basis/aug-cc-pvtz.gbs 


         ---------------------------------------------------------
                                   SCF
               by Justin Turney, Rob Parrish, Andy Simmonett
                          and Daniel G. A. Smith
                              RHF Reference
                        4 Threads,  30517 MiB Core
         ---------------------------------------------------------

  ==> Geometry <==

    Molecular point group: c1
    Full point group: C1

    Geometry (in Angstrom), charge = 0, multiplicity = 1:

       Center              X                  Y                   Z               Mass       
    ------------   -----------------  -----------------  -----------------  -----------------
      Gh(C)          -2.030399260614     0.275496899830     0.000010194538    12.000000000000
      Gh(H)          -3.127913260614     0.341724899830    -0.000010805462     1.007825032230
      Gh(O)          -1.333421260614     1.285983899830    -0.000003805462    15.994914619570
      Gh(N)          -1.574445260614    -0.985651100170     0.000001194538    14.003074004430
      Gh(H)          -0.565883260614    -1.182653100170     0.000000194538     1.007825032230
      Gh(H)          -2.235029260614    -1.739584100170    -0.000009805462     1.007825032230
         C            2.079977739386    -0.262820100170     0.000001194538    12.000000000000
         H            3.169889739386    -0.289088100170    -0.000002805462     1.007825032230
         N            1.348071739386    -1.324479100170    -0.000000805462    14.003074004430
         H            1.947836739386    -2.140798100170    -0.000006805462     1.007825032230
         N            1.567802739386     0.982121899830    -0.000002805462    14.003074004430
         H            0.561162739386     1.132097899830    -0.000003805462     1.007825032230
         H            2.183689739386     1.769674899830    -0.000007805462     1.007825032230

  Running in c1 symmetry.

  Rotational constants: A =      0.18459  B =      0.06460  C =      0.04785 [cm^-1]
  Rotational constants: A =   5533.74481  B =   1936.58331  C =   1434.54982 [MHz]
  Nuclear repulsion =   72.220840074253047

  Charge       = 0
  Multiplicity = 1
  Electrons    = 24
  Nalpha       = 12
  Nbeta        = 12

  ==> Algorithm <==

  SCF Algorithm Type is DF.
  DIIS enabled.
  MOM disabled.
  Fractional occupation disabled.
  Guess Type is SAD.
  Energy threshold   = 1.00e-08
  Density threshold  = 1.00e-08
  Integral threshold = 0.00e+00

  ==> Primary Basis <==

  Basis Set: AUG-CC-PVTZ
    Blend: AUG-CC-PVTZ
    Number of shells: 147
    Number of basis function: 437
    Number of Cartesian functions: 505
    Spherical Harmonics?: true
    Max angular momentum: 3

   => Loading Basis Set <=

    Name: (AUG-CC-PVTZ AUX)
    Role: JKFIT
    Keyword: DF_BASIS_SCF
    atoms 1, 7                 entry C          line   162 file /home/xy3866/psi4conda/share/psi4/basis/aug-cc-pvtz-jkfit.gbs 
    atoms 2, 5-6, 8, 10, 12-13 entry H          line    70 file /home/xy3866/psi4conda/share/psi4/basis/aug-cc-pvtz-jkfit.gbs 
    atoms 3                    entry O          line   286 file /home/xy3866/psi4conda/share/psi4/basis/aug-cc-pvtz-jkfit.gbs 
    atoms 4, 9, 11             entry N          line   224 file /home/xy3866/psi4conda/share/psi4/basis/aug-cc-pvtz-jkfit.gbs 

  ==> Pre-Iterations <==

   -------------------------------------------------------
    Irrep   Nso     Nmo     Nalpha   Nbeta   Ndocc  Nsocc
   -------------------------------------------------------
     A        437     437       0       0       0       0
   -------------------------------------------------------
    Total     437     437      12      12      12       0
   -------------------------------------------------------

  ==> Integral Setup <==

  ==> DiskDFJK: Density-Fitted J/K Matrices <==

    J tasked:                  Yes
    K tasked:                  Yes
    wK tasked:                  No
    OpenMP threads:              4
    Integrals threads:           4
    Memory [MiB]:            22888
    Algorithm:                Core
    Integral Cache:           LOAD
    Schwarz Cutoff:          1E-12
    Fitting Condition:       1E-10

   => Auxiliary Basis Set <=

  Basis Set: (AUG-CC-PVTZ AUX)
    Blend: AUG-CC-PVTZ-JKFIT
    Number of shells: 278
    Number of basis function: 946
    Number of Cartesian functions: 1171
    Spherical Harmonics?: true
    Max angular momentum: 4

  Minimum eigenvalue in the overlap matrix is 2.5872780217E-05.
  Using Symmetric Orthogonalization.

  SCF Guess: Superposition of Atomic Densities via on-the-fly atomic UHF.

  ==> Iterations <==

                           Total Energy        Delta E     RMS |[F,P]|

   @DF-RHF iter SAD:  -148.39145756244534   -1.48391e+02   0.00000e+00 
   @DF-RHF iter   1:  -148.99806507743892   -6.06608e-01   1.25641e-03 DIIS
   @DF-RHF iter   2:  -149.10005473839510   -1.01990e-01   7.40086e-04 DIIS
   @DF-RHF iter   3:  -149.14182938394683   -4.17746e-02   1.03370e-04 DIIS
   @DF-RHF iter   4:  -149.14323849642471   -1.40911e-03   5.11158e-05 DIIS
   @DF-RHF iter   5:  -149.14351443506678   -2.75939e-04   9.28814e-06 DIIS
   @DF-RHF iter   6:  -149.14354269627808   -2.82612e-05   4.37900e-06 DIIS
   @DF-RHF iter   7:  -149.14354732788863   -4.63161e-06   1.76442e-06 DIIS
   @DF-RHF iter   8:  -149.14354825639654   -9.28508e-07   5.20395e-07 DIIS
   @DF-RHF iter   9:  -149.14354834080777   -8.44112e-08   1.58833e-07 DIIS
   @DF-RHF iter  10:  -149.14354834823442   -7.42665e-09   3.95343e-08 DIIS
   @DF-RHF iter  11:  -149.14354834870079   -4.66372e-10   7.55591e-09 DIIS
  Energy and wave function converged.


  ==> Post-Iterations <==

    Orbital Energies [Eh]
    ---------------------

    Doubly Occupied:                                                      

       1A    -15.580938     2A    -15.519598     3A    -11.314716  
       4A     -1.259449     5A     -1.137357     6A     -0.830838  
       7A     -0.746505     8A     -0.640068     9A     -0.616576  
      10A     -0.530114    11A     -0.419654    12A     -0.359598  

    Virtual:                                                              

      13A      0.022301    14A      0.031131    15A      0.037536  
      16A      0.051614    17A      0.056363    18A      0.070264  
      19A      0.073885    20A      0.086201    21A      0.087080  
      22A      0.098654    23A      0.101620    24A      0.116027  
      25A      0.128060    26A      0.133457    27A      0.138533  
      28A      0.140033    29A      0.145762    30A      0.154391  
      31A      0.158176    32A      0.173171    33A      0.174583  
      34A      0.187157    35A      0.204183    36A      0.205376  
      37A      0.214023    38A      0.220421    39A      0.230006  
      40A      0.240702    41A      0.242113    42A      0.254665  
      43A      0.259027    44A      0.278978    45A      0.283282  
      46A      0.304352    47A      0.305057    48A      0.308612  
      49A      0.316609    50A      0.318411    51A      0.324090  
      52A      0.335441    53A      0.346229    54A      0.356950  
      55A      0.359177    56A      0.367141    57A      0.371075  
      58A      0.377308    59A      0.390622    60A      0.393773  
      61A      0.396756    62A      0.401182    63A      0.408014  
      64A      0.416944    65A      0.424385    66A      0.425679  
      67A      0.441359    68A      0.449196    69A      0.452200  
      70A      0.467063    71A      0.472775    72A      0.488197  
      73A      0.503265    74A      0.509288    75A      0.514519  
      76A      0.523934    77A      0.532340    78A      0.536076  
      79A      0.556116    80A      0.561140    81A      0.564773  
      82A      0.586890    83A      0.595284    84A      0.631855  
      85A      0.646466    86A      0.649928    87A      0.656743  
      88A      0.661714    89A      0.668669    90A      0.669408  
      91A      0.680728    92A      0.685267    93A      0.696108  
      94A      0.713503    95A      0.728053    96A      0.741015  
      97A      0.741150    98A      0.766314    99A      0.766925  
     100A      0.777139   101A      0.778149   102A      0.808666  
     103A      0.820147   104A      0.822157   105A      0.841125  
     106A      0.846858   107A      0.846920   108A      0.881889  
     109A      0.886446   110A      0.890784   111A      0.899747  
     112A      0.906448   113A      0.911511   114A      0.923706  
     115A      0.927153   116A      0.931573   117A      0.940017  
     118A      0.951511   119A      0.961130   120A      0.969844  
     121A      0.979820   122A      0.990842   123A      0.997190  
     124A      1.011784   125A      1.023370   126A      1.026717  
     127A      1.028255   128A      1.046095   129A      1.056937  
     130A      1.066604   131A      1.070903   132A      1.072137  
     133A      1.085540   134A      1.086705   135A      1.097319  
     136A      1.103307   137A      1.112777   138A      1.126367  
     139A      1.136763   140A      1.159296   141A      1.163216  
     142A      1.174648   143A      1.187583   144A      1.198249  
     145A      1.207586   146A      1.219858   147A      1.229591  
     148A      1.246300   149A      1.257553   150A      1.258496  
     151A      1.275462   152A      1.279540   153A      1.302940  
     154A      1.327009   155A      1.339805   156A      1.343403  
     157A      1.361051   158A      1.370506   159A      1.376365  
     160A      1.388773   161A      1.403803   162A      1.409259  
     163A      1.415530   164A      1.416503   165A      1.435543  
     166A      1.467251   167A      1.469221   168A      1.481352  
     169A      1.483286   170A      1.493330   171A      1.515198  
     172A      1.518982   173A      1.525348   174A      1.563504  
     175A      1.563760   176A      1.590800   177A      1.598452  
     178A      1.628459   179A      1.633585   180A      1.646527  
     181A      1.659431   182A      1.665483   183A      1.669544  
     184A      1.690008   185A      1.702823   186A      1.723093  
     187A      1.724438   188A      1.735111   189A      1.744786  
     190A      1.766731   191A      1.787143   192A      1.789109  
     193A      1.800868   194A      1.832689   195A      1.855001  
     196A      1.882400   197A      1.886327   198A      1.888895  
     199A      1.912933   200A      1.939198   201A      1.946461  
     202A      1.957441   203A      1.997123   204A      1.998226  
     205A      2.019227   206A      2.038018   207A      2.052552  
     208A      2.064099   209A      2.085786   210A      2.091960  
     211A      2.117231   212A      2.131543   213A      2.136311  
     214A      2.167088   215A      2.194804   216A      2.208074  
     217A      2.222934   218A      2.249415   219A      2.282969  
     220A      2.284972   221A      2.334220   222A      2.348540  
     223A      2.370416   224A      2.389224   225A      2.397264  
     226A      2.400317   227A      2.400778   228A      2.446427  
     229A      2.450949   230A      2.481721   231A      2.498239  
     232A      2.537498   233A      2.542942   234A      2.551307  
     235A      2.560827   236A      2.587973   237A      2.622866  
     238A      2.628379   239A      2.652493   240A      2.660925  
     241A      2.685452   242A      2.700835   243A      2.713460  
     244A      2.731555   245A      2.744783   246A      2.755783  
     247A      2.768629   248A      2.791466   249A      2.795379  
     250A      2.855726   251A      2.871808   252A      2.893145  
     253A      2.931265   254A      2.952552   255A      2.986460  
     256A      3.008027   257A      3.019599   258A      3.034478  
     259A      3.039026   260A      3.114285   261A      3.117791  
     262A      3.143835   263A      3.193068   264A      3.210668  
     265A      3.266321   266A      3.281232   267A      3.359475  
     268A      3.381429   269A      3.427402   270A      3.431226  
     271A      3.450723   272A      3.477759   273A      3.505750  
     274A      3.562115   275A      3.571220   276A      3.611063  
     277A      3.694674   278A      3.724431   279A      3.758416  
     280A      3.821177   281A      3.821937   282A      3.843416  
     283A      3.858905   284A      3.866269   285A      3.946233  
     286A      3.968620   287A      4.022874   288A      4.067295  
     289A      4.069047   290A      4.077459   291A      4.112389  
     292A      4.118978   293A      4.140410   294A      4.142252  
     295A      4.162032   296A      4.164962   297A      4.200371  
     298A      4.236926   299A      4.291550   300A      4.294290  
     301A      4.330692   302A      4.332097   303A      4.377040  
     304A      4.393123   305A      4.427942   306A      4.461497  
     307A      4.464389   308A      4.542054   309A      4.563905  
     310A      4.565242   311A      4.575418   312A      4.582856  
     313A      4.660995   314A      4.667816   315A      4.668790  
     316A      4.698288   317A      4.724738   318A      4.758172  
     319A      4.775319   320A      4.788306   321A      4.809576  
     322A      4.813304   323A      4.862938   324A      4.880520  
     325A      4.886577   326A      4.897245   327A      4.912716  
     328A      4.918282   329A      4.958308   330A      4.994184  
     331A      4.997977   332A      5.010911   333A      5.011981  
     334A      5.026773   335A      5.068620   336A      5.080155  
     337A      5.122105   338A      5.151248   339A      5.162817  
     340A      5.200261   341A      5.212927   342A      5.251128  
     343A      5.269692   344A      5.291371   345A      5.303910  
     346A      5.333231   347A      5.340207   348A      5.390396  
     349A      5.404081   350A      5.414117   351A      5.425340  
     352A      5.469856   353A      5.475778   354A      5.490529  
     355A      5.546722   356A      5.550453   357A      5.580989  
     358A      5.613753   359A      5.642007   360A      5.666568  
     361A      5.680044   362A      5.729895   363A      5.748386  
     364A      5.777283   365A      5.783425   366A      5.837322  
     367A      5.845909   368A      5.896358   369A      5.920602  
     370A      5.956342   371A      5.964329   372A      6.023376  
     373A      6.117115   374A      6.142025   375A      6.149081  
     376A      6.169803   377A      6.201981   378A      6.213736  
     379A      6.241168   380A      6.271395   381A      6.356421  
     382A      6.426729   383A      6.554571   384A      6.583591  
     385A      6.611770   386A      6.635620   387A      6.671297  
     388A      6.704194   389A      6.722856   390A      6.740390  
     391A      6.793165   392A      6.848373   393A      6.887515  
     394A      6.958751   395A      7.067757   396A      7.111816  
     397A      7.352924   398A      7.447502   399A      7.509076  
     400A      7.565789   401A      7.654322   402A      7.715317  
     403A      7.724925   404A      7.728325   405A      7.761731  
     406A      7.774583   407A      7.854320   408A      7.945546  
     409A      7.967447   410A      8.087948   411A      8.157648  
     412A      8.199051   413A      8.432686   414A      8.679501  
     415A      8.786178   416A      9.160583   417A      9.356450  
     418A      9.534616   419A      9.812088   420A      9.871196  
     421A     10.085293   422A     10.159374   423A     10.458084  
     424A     10.646340   425A     11.221818   426A     11.756338  
     427A     11.874532   428A     12.457491   429A     12.644247  
     430A     12.933248   431A     14.007475   432A     17.236351  
     433A     17.587422   434A     19.045927   435A     51.546077  
     436A     61.569803   437A     67.090989  

    Final Occupation by Irrep:
              A 
    DOCC [    12 ]

  @DF-RHF Final Energy:  -149.14354834870079

   => Energetics <=

    Nuclear Repulsion Energy =             72.2208400742530472
    One-Electron Energy =                -344.8179487792058353
    Two-Electron Energy =                 123.4535603562520123
    Total Energy =                       -149.1435483487007900

Computation Completed


Properties will be evaluated at   0.000000,   0.000000,   0.000000 [a0]

Properties computed using the SCF density matrix

  Nuclear Dipole Moment: [e a0]
     X:    77.0131      Y:    -6.6169      Z:    -0.0001

  Electronic Dipole Moment: [e a0]
     X:   -76.1698      Y:     7.5874      Z:     0.0001

  Dipole Moment: [e a0]
     X:     0.8433      Y:     0.9705      Z:    -0.0000     Total:     1.2857

  Dipole Moment: [D]
     X:     2.1434      Y:     2.4668      Z:    -0.0000     Total:     3.2679


*** tstop() called on node54.bme.utexas.edu at Mon Sep  9 17:02:12 2019
Module time:
	user time   =      42.94 seconds =       0.72 minutes
	system time =       0.91 seconds =       0.02 minutes
	total time  =         13 seconds =       0.22 minutes
Total time:
	user time   =     160.43 seconds =       2.67 minutes
	system time =       3.20 seconds =       0.05 minutes
	total time  =         46 seconds =       0.77 minutes
  Constructing Basis Sets for SAPT...

   => Loading Basis Set <=

    Name: (AUG-CC-PVTZ AUX)
    Role: RIFIT
    Keyword: DF_BASIS_SAPT
    atoms 1, 7                 entry C          line   148 file /home/xy3866/psi4conda/share/psi4/basis/aug-cc-pvtz-ri.gbs 
    atoms 2, 5-6, 8, 10, 12-13 entry H          line    30 file /home/xy3866/psi4conda/share/psi4/basis/aug-cc-pvtz-ri.gbs 
    atoms 3                    entry O          line   264 file /home/xy3866/psi4conda/share/psi4/basis/aug-cc-pvtz-ri.gbs 
    atoms 4, 9, 11             entry N          line   206 file /home/xy3866/psi4conda/share/psi4/basis/aug-cc-pvtz-ri.gbs 


  //>>>>>>>>>>>>>>>>>>>>>>>>>>>>>>>>>>>//
  //               SAPT2+              //
  //<<<<<<<<<<<<<<<<<<<<<<<<<<<<<<<<<<<//


*** tstart() called on node54.bme.utexas.edu
*** at Mon Sep  9 17:02:12 2019

        SAPT2+  
    Ed Hohenstein
     6 June 2009

      Orbital Information
  --------------------------
    NSO        =       437
    NMO        =       437
    NRI        =       958
    NOCC A     =        12
    NOCC B     =        12
    FOCC A     =         3
    FOCC B     =         3
    NVIR A     =       425
    NVIR B     =       425

    Estimated memory usage: 2008.5 MB

    Natural Orbital Cutoff:   1.000E-06
    Disp(T3) Truncation:            Yes
    CCD (vv|vv) Truncation:         Yes
    MBPT T2 Truncation:             Yes

    Monomer A: 242 virtual orbitals dropped
    Monomer B: 225 virtual orbitals dropped

    Elst10,r            =    -0.040976298820 [Eh]
    Exch10 (S^2)        =     0.038232115021 [Eh]
    Exch10              =     0.038784280657 [Eh]
    Ind20,r (A<-B)      =    -0.008030184246 [Eh]
    Ind20,r (B<-A)      =    -0.011782246847 [Eh]
    Ind20,r             =    -0.019812431093 [Eh]
    Exch-Ind20,r (A<-B) =     0.003767474959 [Eh]
    Exch-Ind20,r (B<-A) =     0.006662962021 [Eh]
    Exch-Ind20,r        =     0.010430436980 [Eh]
    Disp20              =    -0.014316601131 [Eh]
    Disp20 (NO)         =    -0.012460392474 [Eh]
    Exch-Disp20         =     0.002785172437 [Eh]
    Elst12,r            =     0.000691843740 [Eh]
    Exch11              =     0.000362036535 [Eh]
    Exch12              =     0.004340265246 [Eh]
    Ind22               =    -0.002283036171 [Eh]
    Disp21              =     0.000963216927 [Eh]
    Disp22 (SDQ)        =     0.000032823342 [Eh]

    (i =   1 of   9)         27 seconds
    (i =   2 of   9)         53 seconds
    (i =   3 of   9)         80 seconds
    (i =   4 of   9)        107 seconds
    (i =   5 of   9)        133 seconds
    (i =   6 of   9)        160 seconds
    (i =   7 of   9)        187 seconds
    (i =   8 of   9)        213 seconds
    (i =   9 of   9)        240 seconds

    Disp220 (T)         =    -0.001178490025 [Eh]

    (i =   1 of   9)         29 seconds
    (i =   2 of   9)         59 seconds
    (i =   3 of   9)         88 seconds
    (i =   4 of   9)        118 seconds
    (i =   5 of   9)        147 seconds
    (i =   6 of   9)        177 seconds
    (i =   7 of   9)        206 seconds
    (i =   8 of   9)        236 seconds
    (i =   9 of   9)        265 seconds

    Disp202 (T)         =    -0.001086758407 [Eh]

    Disp22 (T)          =    -0.002265248432 [Eh]

    Est. Disp220 (T)    =    -0.001354048170 [Eh]
    Est. Disp202 (T)    =    -0.001248651411 [Eh]

    Est. Disp22 (T)     =    -0.002602699580 [Eh]

    SAPT Results 
  --------------------------------------------------------------------------------------------------------
    Electrostatics                -40.28445508 [mEh]     -25.27887721 [kcal/mol]    -105.76682224 [kJ/mol]
      Elst10,r                    -40.97629882 [mEh]     -25.71301571 [kcal/mol]    -107.58325773 [kJ/mol]
      Elst12,r                      0.69184374 [mEh]       0.43413850 [kcal/mol]       1.81643549 [kJ/mol]

    Exchange                       43.48658244 [mEh]      27.28824246 [kcal/mol]     114.17400646 [kJ/mol]
      Exch10                       38.78428066 [mEh]      24.33750355 [kcal/mol]     101.82811484 [kJ/mol]
      Exch10(S^2)                  38.23211502 [mEh]      23.99101438 [kcal/mol]     100.37840416 [kJ/mol]
      Exch11(S^2)                   0.36203653 [mEh]       0.22718136 [kcal/mol]       0.95052679 [kJ/mol]
      Exch12(S^2)                   4.34026525 [mEh]       2.72355756 [kcal/mol]      11.39536483 [kJ/mol]

    Induction                     -17.42569907 [mEh]     -10.93479125 [kcal/mol]     -45.75116660 [kJ/mol]
      Ind20,r                     -19.81243109 [mEh]     -12.43248821 [kcal/mol]     -52.01753067 [kJ/mol]
      Ind22                        -2.28303617 [mEh]      -1.43262683 [kcal/mol]      -5.99411064 [kJ/mol]
      Exch-Ind20,r                 10.43043698 [mEh]       6.54519802 [kcal/mol]      27.38510852 [kJ/mol]
      Exch-Ind22                    1.20192544 [mEh]       0.75421960 [kcal/mol]       3.15565480 [kJ/mol]
      delta HF,r (2)               -6.96259422 [mEh]      -4.36909384 [kcal/mol]     -18.28028861 [kJ/mol]

    Dispersion                    -13.13808801 [mEh]      -8.24427469 [kcal/mol]     -34.49404531 [kJ/mol]
      Disp20                      -14.31660113 [mEh]      -8.98380284 [kcal/mol]     -37.58823109 [kJ/mol]
      Disp21                        0.96321693 [mEh]       0.60442775 [kcal/mol]       2.52892569 [kJ/mol]
      Disp22 (SDQ)                  0.03282334 [mEh]       0.02059696 [kcal/mol]       0.08617767 [kJ/mol]
      Disp22 (T)                   -2.26524843 [mEh]      -1.42146485 [kcal/mol]      -5.94740894 [kJ/mol]
      Est. Disp22 (T)              -2.60269958 [mEh]      -1.63321864 [kcal/mol]      -6.83338681 [kJ/mol]
      Exch-Disp20                   2.78517244 [mEh]       1.74772209 [kcal/mol]       7.31246923 [kJ/mol]

  Total HF                        -18.53660650 [mEh]     -11.63189619 [kcal/mol]     -48.66785366 [kJ/mol]
  Total SAPT0                     -30.06803519 [mEh]     -18.86797694 [kcal/mol]     -78.94361552 [kJ/mol]
  Total SAPT2                     -25.75500041 [mEh]     -16.16150675 [kcal/mol]     -67.61974425 [kJ/mol]
  Total SAPT2+                    -27.36165972 [mEh]     -17.16970069 [kcal/mol]     -71.83802769 [kJ/mol]

  Special recipe for scaled SAPT0 (see Manual):
    Electrostatics sSAPT0         -40.97629882 [mEh]     -25.71301571 [kcal/mol]    -107.58325773 [kJ/mol]
    Exchange sSAPT0                38.78428066 [mEh]      24.33750355 [kcal/mol]     101.82811484 [kJ/mol]
    Induction sSAPT0              -15.88610665 [mEh]      -9.96868243 [kcal/mol]     -41.70896727 [kJ/mol]
    Dispersion sSAPT0             -11.40900328 [mEh]      -7.15925765 [kcal/mol]     -29.95433399 [kJ/mol]
  Total sSAPT0                    -29.48712810 [mEh]     -18.50345223 [kcal/mol]     -77.41844415 [kJ/mol]
  --------------------------------------------------------------------------------------------------------

*** tstop() called on node54.bme.utexas.edu at Mon Sep  9 17:14:35 2019
Module time:
	user time   =    2821.93 seconds =      47.03 minutes
	system time =      54.24 seconds =       0.90 minutes
	total time  =        743 seconds =      12.38 minutes
Total time:
	user time   =    2982.69 seconds =      49.71 minutes
	system time =      57.45 seconds =       0.96 minutes
	total time  =        789 seconds =      13.15 minutes

    Psi4 stopped on: Monday, 09 September 2019 05:14PM
    Psi4 wall time for execution: 0:13:08.54

*** Psi4 exiting successfully. Buy a developer a beer!
