
    -----------------------------------------------------------------------
          Psi4: An Open-Source Ab Initio Electronic Structure Package
                               Psi4 1.3.2 release

                         Git: Rev {HEAD} ecbda83 


    R. M. Parrish, L. A. Burns, D. G. A. Smith, A. C. Simmonett,
    A. E. DePrince III, E. G. Hohenstein, U. Bozkaya, A. Yu. Sokolov,
    R. Di Remigio, R. M. Richard, J. F. Gonthier, A. M. James,
    H. R. McAlexander, A. Kumar, M. Saitow, X. Wang, B. P. Pritchard,
    P. Verma, H. F. Schaefer III, K. Patkowski, R. A. King, E. F. Valeev,
    F. A. Evangelista, J. M. Turney, T. D. Crawford, and C. D. Sherrill,
    J. Chem. Theory Comput. 13(7) pp 3185--3197 (2017).
    (doi: 10.1021/acs.jctc.7b00174)


                         Additional Contributions by
    P. Kraus, H. Kruse, M. H. Lechner, M. C. Schieber, R. A. Shaw,
    A. Alenaizan, R. Galvelis, Z. L. Glick, S. Lehtola, and J. P. Misiewicz

    -----------------------------------------------------------------------


    Psi4 started on: Tuesday, 10 September 2019 12:21PM

    Process ID: 50147
    Host:       node51.bme.utexas.edu
    PSIDATADIR: /home/xy3866/psi4conda/share/psi4
    Memory:     500.0 MiB
    Threads:    4
    
  ==> Input File <==

--------------------------------------------------------------------------
#psi4
#
memory 32 gb

molecule  {
0 1
  C        2.0083120    -0.3372920     0.0000040
  H        3.1030340    -0.4288200    -0.0000030
  O        1.2864570    -1.3299810     0.0000000
  N        1.5810970     0.9343630     0.0000010
  H        0.5827550     1.1459700     0.0000010
  H        2.2521680     1.6786790    -0.0000030
--
0 1
  C       -2.0083120     0.3372920     0.0000010
  H       -3.1030340     0.4288200    -0.0000010
  O       -1.2864570     1.3299810     0.0000000
  N       -1.5810970    -0.9343630     0.0000000
  H       -0.5827550    -1.1459700     0.0000000
  H       -2.2521680    -1.6786790    -0.0000010
units angstrom
no_reorient  #important for SAPT in psi4, default
symmetry c1  #important for SAPT in psi4, default
}

set {
basis aug-cc-pVTZ
scf_type DF
freeze_core True
}
energy('sapt2+')
--------------------------------------------------------------------------

  Memory set to  29.802 GiB by Python driver.

  //>>>>>>>>>>>>>>>>>>>>>>>>>>>>>>>>>>>//
  //              Dimer HF             //
  //<<<<<<<<<<<<<<<<<<<<<<<<<<<<<<<<<<<//


*** tstart() called on node51.bme.utexas.edu
*** at Tue Sep 10 12:21:43 2019

   => Loading Basis Set <=

    Name: AUG-CC-PVTZ
    Role: ORBITAL
    Keyword: BASIS
    atoms 1, 7             entry C          line   235 file /home/xy3866/psi4conda/share/psi4/basis/aug-cc-pvtz.gbs 
    atoms 2, 5-6, 8, 11-12 entry H          line    36 file /home/xy3866/psi4conda/share/psi4/basis/aug-cc-pvtz.gbs 
    atoms 3, 9             entry O          line   327 file /home/xy3866/psi4conda/share/psi4/basis/aug-cc-pvtz.gbs 
    atoms 4, 10            entry N          line   281 file /home/xy3866/psi4conda/share/psi4/basis/aug-cc-pvtz.gbs 


         ---------------------------------------------------------
                                   SCF
               by Justin Turney, Rob Parrish, Andy Simmonett
                          and Daniel G. A. Smith
                              RHF Reference
                        4 Threads,  30517 MiB Core
         ---------------------------------------------------------

  ==> Geometry <==

    Molecular point group: c1
    Full point group: C1

    Geometry (in Angstrom), charge = 0, multiplicity = 1:

       Center              X                  Y                   Z               Mass       
    ------------   -----------------  -----------------  -----------------  -----------------
         C            2.008312000000    -0.337292000000     0.000003256485    12.000000000000
         H            3.103034000000    -0.428820000000    -0.000003743515     1.007825032230
         O            1.286457000000    -1.329981000000    -0.000000743515    15.994914619570
         N            1.581097000000     0.934363000000     0.000000256485    14.003074004430
         H            0.582755000000     1.145970000000     0.000000256485     1.007825032230
         H            2.252168000000     1.678679000000    -0.000003743515     1.007825032230
         C           -2.008312000000     0.337292000000     0.000000256485    12.000000000000
         H           -3.103034000000     0.428820000000    -0.000001743515     1.007825032230
         O           -1.286457000000     1.329981000000    -0.000000743515    15.994914619570
         N           -1.581097000000    -0.934363000000    -0.000000743515    14.003074004430
         H           -0.582755000000    -1.145970000000    -0.000000743515     1.007825032230
         H           -2.252168000000    -1.678679000000    -0.000001743515     1.007825032230

  Running in c1 symmetry.

  Rotational constants: A =      0.18924  B =      0.06651  C =      0.04921 [cm^-1]
  Rotational constants: A =   5673.18560  B =   1993.98418  C =   1475.41305 [MHz]
  Nuclear repulsion =  230.088664477083427

  Charge       = 0
  Multiplicity = 1
  Electrons    = 48
  Nalpha       = 24
  Nbeta        = 24

  ==> Algorithm <==

  SCF Algorithm Type is DF.
  DIIS enabled.
  MOM disabled.
  Fractional occupation disabled.
  Guess Type is SAD.
  Energy threshold   = 1.00e-08
  Density threshold  = 1.00e-08
  Integral threshold = 0.00e+00

  ==> Primary Basis <==

  Basis Set: AUG-CC-PVTZ
    Blend: AUG-CC-PVTZ
    Number of shells: 138
    Number of basis function: 414
    Number of Cartesian functions: 480
    Spherical Harmonics?: true
    Max angular momentum: 3

   => Loading Basis Set <=

    Name: (AUG-CC-PVTZ AUX)
    Role: JKFIT
    Keyword: DF_BASIS_SCF
    atoms 1, 7             entry C          line   162 file /home/xy3866/psi4conda/share/psi4/basis/aug-cc-pvtz-jkfit.gbs 
    atoms 2, 5-6, 8, 11-12 entry H          line    70 file /home/xy3866/psi4conda/share/psi4/basis/aug-cc-pvtz-jkfit.gbs 
    atoms 3, 9             entry O          line   286 file /home/xy3866/psi4conda/share/psi4/basis/aug-cc-pvtz-jkfit.gbs 
    atoms 4, 10            entry N          line   224 file /home/xy3866/psi4conda/share/psi4/basis/aug-cc-pvtz-jkfit.gbs 

  ==> Pre-Iterations <==

   -------------------------------------------------------
    Irrep   Nso     Nmo     Nalpha   Nbeta   Ndocc  Nsocc
   -------------------------------------------------------
     A        414     414       0       0       0       0
   -------------------------------------------------------
    Total     414     414      24      24      24       0
   -------------------------------------------------------

  ==> Integral Setup <==

  ==> DiskDFJK: Density-Fitted J/K Matrices <==

    J tasked:                  Yes
    K tasked:                  Yes
    wK tasked:                  No
    OpenMP threads:              4
    Integrals threads:           4
    Memory [MiB]:            22888
    Algorithm:                Core
    Integral Cache:           SAVE
    Schwarz Cutoff:          1E-12
    Fitting Condition:       1E-10

   => Auxiliary Basis Set <=

  Basis Set: (AUG-CC-PVTZ AUX)
    Blend: AUG-CC-PVTZ-JKFIT
    Number of shells: 264
    Number of basis function: 900
    Number of Cartesian functions: 1116
    Spherical Harmonics?: true
    Max angular momentum: 4

  Minimum eigenvalue in the overlap matrix is 3.2809390459E-05.
  Using Symmetric Orthogonalization.

  SCF Guess: Superposition of Atomic Densities via on-the-fly atomic UHF.

  ==> Iterations <==

                           Total Energy        Delta E     RMS |[F,P]|

   @DF-RHF iter SAD:  -336.62759977990021   -3.36628e+02   0.00000e+00 
   @DF-RHF iter   1:  -337.81066642474116   -1.18307e+00   1.73618e-03 DIIS
   @DF-RHF iter   2:  -337.95777129599162   -1.47105e-01   1.08008e-03 DIIS
   @DF-RHF iter   3:  -338.02312888099812   -6.53576e-02   1.63098e-04 DIIS
   @DF-RHF iter   4:  -338.02550231571837   -2.37343e-03   7.09488e-05 DIIS
   @DF-RHF iter   5:  -338.02596922345344   -4.66908e-04   1.40760e-05 DIIS
   @DF-RHF iter   6:  -338.02601427443926   -4.50510e-05   6.71298e-06 DIIS
   @DF-RHF iter   7:  -338.02602420596088   -9.93152e-06   2.57077e-06 DIIS
   @DF-RHF iter   8:  -338.02602611238018   -1.90642e-06   8.07454e-07 DIIS
   @DF-RHF iter   9:  -338.02602629506663   -1.82686e-07   2.22817e-07 DIIS
   @DF-RHF iter  10:  -338.02602630859798   -1.35313e-08   7.08489e-08 DIIS
   @DF-RHF iter  11:  -338.02602630968488   -1.08690e-09   1.55356e-08 DIIS
   @DF-RHF iter  12:  -338.02602630973382   -4.89422e-11   2.69521e-09 DIIS
  Energy and wave function converged.


  ==> Post-Iterations <==

    Orbital Energies [Eh]
    ---------------------

    Doubly Occupied:                                                      

       1A    -20.530744     2A    -20.530744     3A    -15.581404  
       4A    -15.581403     5A    -11.357192     6A    -11.357192  
       7A     -1.386402     8A     -1.381991     9A     -1.217617  
      10A     -1.212001    11A     -0.859394    12A     -0.836011  
      13A     -0.750237    14A     -0.741501    15A     -0.703495  
      16A     -0.646562    17A     -0.618611    18A     -0.594935  
      19A     -0.574938    20A     -0.567355    21A     -0.454715  
      22A     -0.430126    23A     -0.422013    24A     -0.412175  

    Virtual:                                                              

      25A      0.027073    26A      0.030495    27A      0.043291  
      28A      0.049961    29A      0.061340    30A      0.075636  
      31A      0.085539    32A      0.088578    33A      0.100071  
      34A      0.110016    35A      0.130901    36A      0.132965  
      37A      0.137236    38A      0.138524    39A      0.138710  
      40A      0.147965    41A      0.153371    42A      0.160501  
      43A      0.181593    44A      0.184378    45A      0.186705  
      46A      0.203191    47A      0.223187    48A      0.225833  
      49A      0.231013    50A      0.255360    51A      0.257908  
      52A      0.261993    53A      0.270444    54A      0.271943  
      55A      0.274224    56A      0.290590    57A      0.296336  
      58A      0.298742    59A      0.315548    60A      0.320434  
      61A      0.321625    62A      0.335855    63A      0.336879  
      64A      0.340504    65A      0.356314    66A      0.366059  
      67A      0.376892    68A      0.385124    69A      0.395300  
      70A      0.398894    71A      0.412354    72A      0.412439  
      73A      0.413335    74A      0.432866    75A      0.433548  
      76A      0.437781    77A      0.448155    78A      0.450856  
      79A      0.471863    80A      0.489429    81A      0.498672  
      82A      0.526970    83A      0.531122    84A      0.534663  
      85A      0.537831    86A      0.543828    87A      0.559783  
      88A      0.575132    89A      0.578887    90A      0.588926  
      91A      0.590059    92A      0.597413    93A      0.624793  
      94A      0.625746    95A      0.644876    96A      0.647415  
      97A      0.656862    98A      0.672011    99A      0.684157  
     100A      0.696049   101A      0.716712   102A      0.726252  
     103A      0.737489   104A      0.739499   105A      0.745370  
     106A      0.763039   107A      0.794425   108A      0.807760  
     109A      0.818957   110A      0.833728   111A      0.834276  
     112A      0.842271   113A      0.868585   114A      0.873284  
     115A      0.875596   116A      0.877646   117A      0.898674  
     118A      0.913419   119A      0.922822   120A      0.923148  
     121A      0.930199   122A      0.930236   123A      0.933273  
     124A      0.942447   125A      0.952400   126A      0.963894  
     127A      0.980227   128A      0.985006   129A      0.992783  
     130A      0.998297   131A      1.006093   132A      1.030918  
     133A      1.037973   134A      1.042072   135A      1.043193  
     136A      1.074884   137A      1.076192   138A      1.092122  
     139A      1.093045   140A      1.114091   141A      1.121448  
     142A      1.125108   143A      1.125835   144A      1.137485  
     145A      1.139877   146A      1.142698   147A      1.147101  
     148A      1.169625   149A      1.199266   150A      1.206537  
     151A      1.220593   152A      1.241596   153A      1.267054  
     154A      1.267226   155A      1.268864   156A      1.280301  
     157A      1.281941   158A      1.284266   159A      1.314119  
     160A      1.332615   161A      1.359092   162A      1.366384  
     163A      1.368131   164A      1.375657   165A      1.389637  
     166A      1.411736   167A      1.418567   168A      1.426770  
     169A      1.444814   170A      1.449868   171A      1.457201  
     172A      1.465048   173A      1.472072   174A      1.473463  
     175A      1.486146   176A      1.518544   177A      1.540098  
     178A      1.543493   179A      1.544567   180A      1.574458  
     181A      1.596291   182A      1.601269   183A      1.613890  
     184A      1.660430   185A      1.673475   186A      1.678743  
     187A      1.702273   188A      1.708778   189A      1.736682  
     190A      1.736995   191A      1.756099   192A      1.775270  
     193A      1.776525   194A      1.792275   195A      1.832075  
     196A      1.874732   197A      1.882771   198A      1.919603  
     199A      1.921600   200A      1.949094   201A      1.992853  
     202A      2.000178   203A      2.054123   204A      2.060967  
     205A      2.073219   206A      2.090543   207A      2.090649  
     208A      2.111038   209A      2.130211   210A      2.143547  
     211A      2.148851   212A      2.168949   213A      2.180807  
     214A      2.197456   215A      2.211422   216A      2.220901  
     217A      2.238829   218A      2.296028   219A      2.298693  
     220A      2.357690   221A      2.369516   222A      2.392359  
     223A      2.416715   224A      2.425883   225A      2.427883  
     226A      2.460276   227A      2.461101   228A      2.484514  
     229A      2.525899   230A      2.545256   231A      2.547189  
     232A      2.557233   233A      2.587270   234A      2.588092  
     235A      2.606344   236A      2.614859   237A      2.628383  
     238A      2.635082   239A      2.663727   240A      2.668710  
     241A      2.694060   242A      2.728649   243A      2.731691  
     244A      2.739470   245A      2.765620   246A      2.798573  
     247A      2.803966   248A      2.831134   249A      2.833488  
     250A      2.837800   251A      2.929526   252A      2.931169  
     253A      2.934711   254A      2.964958   255A      3.011990  
     256A      3.060692   257A      3.061160   258A      3.160479  
     259A      3.165142   260A      3.186791   261A      3.193152  
     262A      3.211408   263A      3.257255   264A      3.296169  
     265A      3.368416   266A      3.384915   267A      3.393851  
     268A      3.421541   269A      3.444565   270A      3.455349  
     271A      3.566685   272A      3.582269   273A      3.604032  
     274A      3.627784   275A      3.665050   276A      3.707636  
     277A      3.713726   278A      3.722299   279A      3.795484  
     280A      3.802439   281A      3.828419   282A      3.839906  
     283A      3.909179   284A      3.925792   285A      4.073215  
     286A      4.077875   287A      4.083128   288A      4.095167  
     289A      4.101441   290A      4.105823   291A      4.166159  
     292A      4.166193   293A      4.175364   294A      4.184388  
     295A      4.200238   296A      4.209385   297A      4.209546  
     298A      4.224181   299A      4.242272   300A      4.277859  
     301A      4.331845   302A      4.342017   303A      4.366819  
     304A      4.381588   305A      4.385815   306A      4.389979  
     307A      4.410435   308A      4.428437   309A      4.444453  
     310A      4.446502   311A      4.512510   312A      4.526305  
     313A      4.531997   314A      4.535874   315A      4.608239  
     316A      4.635039   317A      4.686485   318A      4.690821  
     319A      4.699083   320A      4.744833   321A      4.769534  
     322A      4.833093   323A      4.847822   324A      4.850778  
     325A      4.895578   326A      4.908188   327A      4.919458  
     328A      4.925077   329A      4.936601   330A      4.937961  
     331A      4.943367   332A      4.990244   333A      5.084270  
     334A      5.085269   335A      5.108520   336A      5.125534  
     337A      5.182141   338A      5.201802   339A      5.209018  
     340A      5.233960   341A      5.240499   342A      5.242464  
     343A      5.260701   344A      5.308551   345A      5.358081  
     346A      5.435706   347A      5.449505   348A      5.489085  
     349A      5.543070   350A      5.567565   351A      5.567623  
     352A      5.583168   353A      5.638605   354A      5.650640  
     355A      5.679928   356A      5.697202   357A      5.740236  
     358A      5.762990   359A      5.840673   360A      5.845638  
     361A      5.879683   362A      5.888256   363A      6.057549  
     364A      6.082138   365A      6.098486   366A      6.141146  
     367A      6.174574   368A      6.220147   369A      6.350327  
     370A      6.362892   371A      6.379817   372A      6.402069  
     373A      6.446049   374A      6.515475   375A      6.583236  
     376A      6.636762   377A      6.847028   378A      6.872691  
     379A      6.875736   380A      6.940982   381A      6.956967  
     382A      6.957140   383A      7.046760   384A      7.063939  
     385A      7.076079   386A      7.130117   387A      7.160335  
     388A      7.162229   389A      7.258309   390A      7.278602  
     391A      7.314352   392A      7.315561   393A      7.319404  
     394A      7.347933   395A      7.447358   396A      7.456228  
     397A      7.627272   398A      7.628660   399A      7.645422  
     400A      7.648394   401A      7.712015   402A      7.735856  
     403A      7.932884   404A      7.938546   405A      7.987078  
     406A      8.087809   407A      8.203481   408A      8.244344  
     409A     15.775484   410A     15.974892   411A     17.547113  
     412A     17.881997   413A     18.801003   414A     18.871305  

    Final Occupation by Irrep:
              A 
    DOCC [    24 ]

  @DF-RHF Final Energy:  -338.02602630973382

   => Energetics <=

    Nuclear Repulsion Energy =            230.0886644770834266
    One-Electron Energy =                -918.7318683755441953
    Two-Electron Energy =                 350.6171775887269746
    Total Energy =                       -338.0260263097338225

Computation Completed


Properties will be evaluated at   0.000000,   0.000000,   0.000000 [a0]

Properties computed using the SCF density matrix

  Nuclear Dipole Moment: [e a0]
     X:    -0.0000      Y:    -0.0000      Z:    -0.0000

  Electronic Dipole Moment: [e a0]
     X:    -0.0000      Y:     0.0000      Z:     0.0000

  Dipole Moment: [e a0]
     X:    -0.0000      Y:     0.0000      Z:    -0.0000     Total:     0.0000

  Dipole Moment: [D]
     X:    -0.0000      Y:     0.0000      Z:    -0.0000     Total:     0.0000


*** tstop() called on node51.bme.utexas.edu at Tue Sep 10 12:22:03 2019
Module time:
	user time   =      72.32 seconds =       1.21 minutes
	system time =       1.67 seconds =       0.03 minutes
	total time  =         20 seconds =       0.33 minutes
Total time:
	user time   =      72.32 seconds =       1.21 minutes
	system time =       1.67 seconds =       0.03 minutes
	total time  =         20 seconds =       0.33 minutes

  //>>>>>>>>>>>>>>>>>>>>>>>>>>>>>>>>>>>//
  //            Monomer A HF           //
  //<<<<<<<<<<<<<<<<<<<<<<<<<<<<<<<<<<<//


*** tstart() called on node51.bme.utexas.edu
*** at Tue Sep 10 12:22:03 2019

   => Loading Basis Set <=

    Name: AUG-CC-PVTZ
    Role: ORBITAL
    Keyword: BASIS
    atoms 1, 7             entry C          line   235 file /home/xy3866/psi4conda/share/psi4/basis/aug-cc-pvtz.gbs 
    atoms 2, 5-6, 8, 11-12 entry H          line    36 file /home/xy3866/psi4conda/share/psi4/basis/aug-cc-pvtz.gbs 
    atoms 3, 9             entry O          line   327 file /home/xy3866/psi4conda/share/psi4/basis/aug-cc-pvtz.gbs 
    atoms 4, 10            entry N          line   281 file /home/xy3866/psi4conda/share/psi4/basis/aug-cc-pvtz.gbs 


         ---------------------------------------------------------
                                   SCF
               by Justin Turney, Rob Parrish, Andy Simmonett
                          and Daniel G. A. Smith
                              RHF Reference
                        4 Threads,  30517 MiB Core
         ---------------------------------------------------------

  ==> Geometry <==

    Molecular point group: c1
    Full point group: C1

    Geometry (in Angstrom), charge = 0, multiplicity = 1:

       Center              X                  Y                   Z               Mass       
    ------------   -----------------  -----------------  -----------------  -----------------
         C            2.008312000000    -0.337292000000     0.000003256485    12.000000000000
         H            3.103034000000    -0.428820000000    -0.000003743515     1.007825032230
         O            1.286457000000    -1.329981000000    -0.000000743515    15.994914619570
         N            1.581097000000     0.934363000000     0.000000256485    14.003074004430
         H            0.582755000000     1.145970000000     0.000000256485     1.007825032230
         H            2.252168000000     1.678679000000    -0.000003743515     1.007825032230
      Gh(C)          -2.008312000000     0.337292000000     0.000000256485    12.000000000000
      Gh(H)          -3.103034000000     0.428820000000    -0.000001743515     1.007825032230
      Gh(O)          -1.286457000000     1.329981000000    -0.000000743515    15.994914619570
      Gh(N)          -1.581097000000    -0.934363000000    -0.000000743515    14.003074004430
      Gh(H)          -0.582755000000    -1.145970000000    -0.000000743515     1.007825032230
      Gh(H)          -2.252168000000    -1.678679000000    -0.000001743515     1.007825032230

  Running in c1 symmetry.

  Rotational constants: A =      0.18924  B =      0.06651  C =      0.04921 [cm^-1]
  Rotational constants: A =   5673.18560  B =   1993.98418  C =   1475.41305 [MHz]
  Nuclear repulsion =   71.161114511883852

  Charge       = 0
  Multiplicity = 1
  Electrons    = 24
  Nalpha       = 12
  Nbeta        = 12

  ==> Algorithm <==

  SCF Algorithm Type is DF.
  DIIS enabled.
  MOM disabled.
  Fractional occupation disabled.
  Guess Type is SAD.
  Energy threshold   = 1.00e-08
  Density threshold  = 1.00e-08
  Integral threshold = 0.00e+00

  ==> Primary Basis <==

  Basis Set: AUG-CC-PVTZ
    Blend: AUG-CC-PVTZ
    Number of shells: 138
    Number of basis function: 414
    Number of Cartesian functions: 480
    Spherical Harmonics?: true
    Max angular momentum: 3

   => Loading Basis Set <=

    Name: (AUG-CC-PVTZ AUX)
    Role: JKFIT
    Keyword: DF_BASIS_SCF
    atoms 1, 7             entry C          line   162 file /home/xy3866/psi4conda/share/psi4/basis/aug-cc-pvtz-jkfit.gbs 
    atoms 2, 5-6, 8, 11-12 entry H          line    70 file /home/xy3866/psi4conda/share/psi4/basis/aug-cc-pvtz-jkfit.gbs 
    atoms 3, 9             entry O          line   286 file /home/xy3866/psi4conda/share/psi4/basis/aug-cc-pvtz-jkfit.gbs 
    atoms 4, 10            entry N          line   224 file /home/xy3866/psi4conda/share/psi4/basis/aug-cc-pvtz-jkfit.gbs 

  ==> Pre-Iterations <==

   -------------------------------------------------------
    Irrep   Nso     Nmo     Nalpha   Nbeta   Ndocc  Nsocc
   -------------------------------------------------------
     A        414     414       0       0       0       0
   -------------------------------------------------------
    Total     414     414      12      12      12       0
   -------------------------------------------------------

  ==> Integral Setup <==

  ==> DiskDFJK: Density-Fitted J/K Matrices <==

    J tasked:                  Yes
    K tasked:                  Yes
    wK tasked:                  No
    OpenMP threads:              4
    Integrals threads:           4
    Memory [MiB]:            22888
    Algorithm:                Core
    Integral Cache:           LOAD
    Schwarz Cutoff:          1E-12
    Fitting Condition:       1E-10

   => Auxiliary Basis Set <=

  Basis Set: (AUG-CC-PVTZ AUX)
    Blend: AUG-CC-PVTZ-JKFIT
    Number of shells: 264
    Number of basis function: 900
    Number of Cartesian functions: 1116
    Spherical Harmonics?: true
    Max angular momentum: 4

  Minimum eigenvalue in the overlap matrix is 3.2809390459E-05.
  Using Symmetric Orthogonalization.

  SCF Guess: Superposition of Atomic Densities via on-the-fly atomic UHF.

  ==> Iterations <==

                           Total Energy        Delta E     RMS |[F,P]|

   @DF-RHF iter SAD:  -168.20327164950294   -1.68203e+02   0.00000e+00 
   @DF-RHF iter   1:  -168.87965448318141   -6.76383e-01   1.29327e-03 DIIS
   @DF-RHF iter   2:  -168.95778708018034   -7.81326e-02   8.83335e-04 DIIS
   @DF-RHF iter   3:  -169.00150883041908   -4.37218e-02   1.26831e-04 DIIS
   @DF-RHF iter   4:  -169.00294898752435   -1.44016e-03   5.48101e-05 DIIS
   @DF-RHF iter   5:  -169.00325239673586   -3.03409e-04   1.09760e-05 DIIS
   @DF-RHF iter   6:  -169.00328241047248   -3.00137e-05   5.23309e-06 DIIS
   @DF-RHF iter   7:  -169.00328872104495   -6.31057e-06   2.10863e-06 DIIS
   @DF-RHF iter   8:  -169.00328983031849   -1.10927e-06   6.37040e-07 DIIS
   @DF-RHF iter   9:  -169.00328993426513   -1.03947e-07   1.75743e-07 DIIS
   @DF-RHF iter  10:  -169.00328994242682   -8.16169e-09   4.34732e-08 DIIS
   @DF-RHF iter  11:  -169.00328994283379   -4.06970e-10   7.78488e-09 DIIS
  Energy and wave function converged.


  ==> Post-Iterations <==

    Orbital Energies [Eh]
    ---------------------

    Doubly Occupied:                                                      

       1A    -20.526937     2A    -15.602087     3A    -11.356548  
       4A     -1.376928     5A     -1.227371     6A     -0.854903  
       7A     -0.756202     8A     -0.677329     9A     -0.603161  
      10A     -0.571941    11A     -0.435225    12A     -0.422128  

    Virtual:                                                              

      13A      0.018549    14A      0.029370    15A      0.039881  
      16A      0.055276    17A      0.056450    18A      0.069420  
      19A      0.086097    20A      0.086590    21A      0.089455  
      22A      0.096954    23A      0.110093    24A      0.124958  
      25A      0.128934    26A      0.133749    27A      0.138605  
      28A      0.146700    29A      0.152590    30A      0.159145  
      31A      0.174052    32A      0.179493    33A      0.195144  
      34A      0.201172    35A      0.203131    36A      0.217548  
      37A      0.224155    38A      0.248741    39A      0.250554  
      40A      0.257786    41A      0.258325    42A      0.269626  
      43A      0.279194    44A      0.289260    45A      0.300474  
      46A      0.303615    47A      0.307806    48A      0.316519  
      49A      0.330278    50A      0.330828    51A      0.345751  
      52A      0.350818    53A      0.356930    54A      0.366232  
      55A      0.370727    56A      0.386355    57A      0.387493  
      58A      0.395589    59A      0.399494    60A      0.401455  
      61A      0.408645    62A      0.422033    63A      0.427510  
      64A      0.448126    65A      0.448866    66A      0.452593  
      67A      0.469430    68A      0.497254    69A      0.498161  
      70A      0.501960    71A      0.524425    72A      0.533846  
      73A      0.537857    74A      0.547257    75A      0.558644  
      76A      0.567096    77A      0.570745    78A      0.584267  
      79A      0.621566    80A      0.623360    81A      0.639553  
      82A      0.647217    83A      0.652913    84A      0.662974  
      85A      0.678264    86A      0.688980    87A      0.705395  
      88A      0.725493    89A      0.728958    90A      0.741837  
      91A      0.751578    92A      0.751811    93A      0.757410  
      94A      0.785968    95A      0.809100    96A      0.816489  
      97A      0.832290    98A      0.840064    99A      0.857046  
     100A      0.859402   101A      0.863885   102A      0.881662  
     103A      0.881995   104A      0.897170   105A      0.904225  
     106A      0.907369   107A      0.921424   108A      0.922822  
     109A      0.934562   110A      0.937793   111A      0.949537  
     112A      0.950864   113A      0.973595   114A      0.985632  
     115A      0.986427   116A      1.004966   117A      1.010557  
     118A      1.015667   119A      1.022222   120A      1.043525  
     121A      1.060420   122A      1.060463   123A      1.069314  
     124A      1.073345   125A      1.084393   126A      1.092289  
     127A      1.093834   128A      1.099916   129A      1.124879  
     130A      1.133196   131A      1.134868   132A      1.156774  
     133A      1.162937   134A      1.167254   135A      1.169900  
     136A      1.198538   137A      1.207454   138A      1.224210  
     139A      1.255012   140A      1.256909   141A      1.272577  
     142A      1.280927   143A      1.290791   144A      1.293357  
     145A      1.315233   146A      1.331798   147A      1.344240  
     148A      1.357641   149A      1.376560   150A      1.377608  
     151A      1.405228   152A      1.413540   153A      1.421186  
     154A      1.447370   155A      1.449793   156A      1.468948  
     157A      1.470014   158A      1.496236   159A      1.499532  
     160A      1.518846   161A      1.531802   162A      1.555698  
     163A      1.585343   164A      1.602059   165A      1.617108  
     166A      1.629316   167A      1.632389   168A      1.647631  
     169A      1.672841   170A      1.674209   171A      1.685708  
     172A      1.689062   173A      1.690086   174A      1.729659  
     175A      1.730526   176A      1.747121   177A      1.754262  
     178A      1.776008   179A      1.781239   180A      1.835541  
     181A      1.839281   182A      1.845732   183A      1.874132  
     184A      1.876502   185A      1.905655   186A      1.908212  
     187A      1.932552   188A      1.971444   189A      1.984502  
     190A      2.015683   191A      2.026048   192A      2.051720  
     193A      2.052551   194A      2.093305   195A      2.097988  
     196A      2.107547   197A      2.109519   198A      2.152463  
     199A      2.164696   200A      2.206041   201A      2.224185  
     202A      2.240892   203A      2.260671   204A      2.324572  
     205A      2.334025   206A      2.349668   207A      2.349952  
     208A      2.374428   209A      2.387339   210A      2.428486  
     211A      2.445987   212A      2.466400   213A      2.473259  
     214A      2.515352   215A      2.520129   216A      2.541591  
     217A      2.569865   218A      2.570749   219A      2.627670  
     220A      2.634206   221A      2.644213   222A      2.654137  
     223A      2.686556   224A      2.686948   225A      2.700035  
     226A      2.718821   227A      2.735043   228A      2.739458  
     229A      2.746186   230A      2.779318   231A      2.800578  
     232A      2.813617   233A      2.830394   234A      2.866015  
     235A      2.899928   236A      2.908746   237A      2.924720  
     238A      2.950396   239A      2.954096   240A      2.975101  
     241A      3.003758   242A      3.016360   243A      3.047190  
     244A      3.081511   245A      3.123694   246A      3.159904  
     247A      3.195498   248A      3.197250   249A      3.204982  
     250A      3.247688   251A      3.299771   252A      3.339414  
     253A      3.356160   254A      3.394593   255A      3.419696  
     256A      3.423699   257A      3.471103   258A      3.511695  
     259A      3.539297   260A      3.563237   261A      3.586853  
     262A      3.614264   263A      3.708898   264A      3.737860  
     265A      3.766552   266A      3.833475   267A      3.839076  
     268A      3.856514   269A      3.921685   270A      3.969572  
     271A      4.058263   272A      4.080654   273A      4.089386  
     274A      4.110901   275A      4.110933   276A      4.133612  
     277A      4.155586   278A      4.175373   279A      4.187205  
     280A      4.207090   281A      4.228098   282A      4.242468  
     283A      4.318021   284A      4.355348   285A      4.373495  
     286A      4.409414   287A      4.427930   288A      4.444974  
     289A      4.502152   290A      4.506054   291A      4.541344  
     292A      4.557604   293A      4.567719   294A      4.621001  
     295A      4.646467   296A      4.689898   297A      4.698495  
     298A      4.728564   299A      4.764310   300A      4.783313  
     301A      4.791594   302A      4.826066   303A      4.859642  
     304A      4.877255   305A      4.894108   306A      4.912042  
     307A      4.939996   308A      4.944343   309A      4.982520  
     310A      4.984104   311A      5.001623   312A      5.044595  
     313A      5.054785   314A      5.084140   315A      5.114639  
     316A      5.155833   317A      5.162439   318A      5.209869  
     319A      5.220873   320A      5.230325   321A      5.277629  
     322A      5.307128   323A      5.316919   324A      5.325615  
     325A      5.369182   326A      5.382603   327A      5.389286  
     328A      5.409902   329A      5.444641   330A      5.478137  
     331A      5.552412   332A      5.564145   333A      5.580554  
     334A      5.645206   335A      5.658668   336A      5.703520  
     337A      5.711726   338A      5.814418   339A      5.830268  
     340A      5.839062   341A      5.912355   342A      5.931178  
     343A      5.979628   344A      6.076323   345A      6.099989  
     346A      6.149716   347A      6.179288   348A      6.229454  
     349A      6.322823   350A      6.357453   351A      6.381498  
     352A      6.495664   353A      6.591483   354A      6.600760  
     355A      6.615384   356A      6.688421   357A      6.702460  
     358A      6.717422   359A      6.793925   360A      6.866841  
     361A      6.901739   362A      6.906768   363A      6.975518  
     364A      7.068283   365A      7.106854   366A      7.129286  
     367A      7.173456   368A      7.237517   369A      7.324951  
     370A      7.338286   371A      7.384026   372A      7.399967  
     373A      7.516302   374A      7.631265   375A      7.637853  
     376A      7.650476   377A      7.716998   378A      7.718177  
     379A      7.725226   380A      7.763982   381A      7.800932  
     382A      7.903055   383A      7.946831   384A      7.961774  
     385A      8.022140   386A      8.075856   387A      8.106605  
     388A      8.148209   389A      8.214291   390A      8.478521  
     391A      8.670436   392A      8.794246   393A      9.150579  
     394A      9.384521   395A      9.521670   396A      9.799118  
     397A      9.860191   398A     10.074733   399A     10.138559  
     400A     10.454163   401A     10.628580   402A     11.199261  
     403A     11.727961   404A     11.864479   405A     12.457667  
     406A     12.638927   407A     12.948632   408A     13.987526  
     409A     15.941120   410A     17.680599   411A     18.819047  
     412A     51.355955   413A     61.805705   414A     66.997172  

    Final Occupation by Irrep:
              A 
    DOCC [    12 ]

  @DF-RHF Final Energy:  -169.00328994283379

   => Energetics <=

    Nuclear Repulsion Energy =             71.1611145118838522
    One-Electron Energy =                -371.5072876108408764
    Two-Electron Energy =                 131.3428831561232357
    Total Energy =                       -169.0032899428337885

Computation Completed


Properties will be evaluated at   0.000000,   0.000000,   0.000000 [a0]

Properties computed using the SCF density matrix

  Nuclear Dipole Moment: [e a0]
     X:    74.3554      Y:    -7.0434      Z:     0.0000

  Electronic Dipole Moment: [e a0]
     X:   -73.7331      Y:     8.6855      Z:    -0.0000

  Dipole Moment: [e a0]
     X:     0.6223      Y:     1.6421      Z:    -0.0000     Total:     1.7561

  Dipole Moment: [D]
     X:     1.5818      Y:     4.1738      Z:    -0.0000     Total:     4.4634


*** tstop() called on node51.bme.utexas.edu at Tue Sep 10 12:22:15 2019
Module time:
	user time   =      40.93 seconds =       0.68 minutes
	system time =       0.95 seconds =       0.02 minutes
	total time  =         12 seconds =       0.20 minutes
Total time:
	user time   =     113.28 seconds =       1.89 minutes
	system time =       2.62 seconds =       0.04 minutes
	total time  =         32 seconds =       0.53 minutes

  //>>>>>>>>>>>>>>>>>>>>>>>>>>>>>>>>>>>//
  //            Monomer B HF           //
  //<<<<<<<<<<<<<<<<<<<<<<<<<<<<<<<<<<<//


*** tstart() called on node51.bme.utexas.edu
*** at Tue Sep 10 12:22:15 2019

   => Loading Basis Set <=

    Name: AUG-CC-PVTZ
    Role: ORBITAL
    Keyword: BASIS
    atoms 1, 7             entry C          line   235 file /home/xy3866/psi4conda/share/psi4/basis/aug-cc-pvtz.gbs 
    atoms 2, 5-6, 8, 11-12 entry H          line    36 file /home/xy3866/psi4conda/share/psi4/basis/aug-cc-pvtz.gbs 
    atoms 3, 9             entry O          line   327 file /home/xy3866/psi4conda/share/psi4/basis/aug-cc-pvtz.gbs 
    atoms 4, 10            entry N          line   281 file /home/xy3866/psi4conda/share/psi4/basis/aug-cc-pvtz.gbs 


         ---------------------------------------------------------
                                   SCF
               by Justin Turney, Rob Parrish, Andy Simmonett
                          and Daniel G. A. Smith
                              RHF Reference
                        4 Threads,  30517 MiB Core
         ---------------------------------------------------------

  ==> Geometry <==

    Molecular point group: c1
    Full point group: C1

    Geometry (in Angstrom), charge = 0, multiplicity = 1:

       Center              X                  Y                   Z               Mass       
    ------------   -----------------  -----------------  -----------------  -----------------
      Gh(C)           2.008312000000    -0.337292000000     0.000003256485    12.000000000000
      Gh(H)           3.103034000000    -0.428820000000    -0.000003743515     1.007825032230
      Gh(O)           1.286457000000    -1.329981000000    -0.000000743515    15.994914619570
      Gh(N)           1.581097000000     0.934363000000     0.000000256485    14.003074004430
      Gh(H)           0.582755000000     1.145970000000     0.000000256485     1.007825032230
      Gh(H)           2.252168000000     1.678679000000    -0.000003743515     1.007825032230
         C           -2.008312000000     0.337292000000     0.000000256485    12.000000000000
         H           -3.103034000000     0.428820000000    -0.000001743515     1.007825032230
         O           -1.286457000000     1.329981000000    -0.000000743515    15.994914619570
         N           -1.581097000000    -0.934363000000    -0.000000743515    14.003074004430
         H           -0.582755000000    -1.145970000000    -0.000000743515     1.007825032230
         H           -2.252168000000    -1.678679000000    -0.000001743515     1.007825032230

  Running in c1 symmetry.

  Rotational constants: A =      0.18924  B =      0.06651  C =      0.04921 [cm^-1]
  Rotational constants: A =   5673.18560  B =   1993.98418  C =   1475.41305 [MHz]
  Nuclear repulsion =   71.161114512123262

  Charge       = 0
  Multiplicity = 1
  Electrons    = 24
  Nalpha       = 12
  Nbeta        = 12

  ==> Algorithm <==

  SCF Algorithm Type is DF.
  DIIS enabled.
  MOM disabled.
  Fractional occupation disabled.
  Guess Type is SAD.
  Energy threshold   = 1.00e-08
  Density threshold  = 1.00e-08
  Integral threshold = 0.00e+00

  ==> Primary Basis <==

  Basis Set: AUG-CC-PVTZ
    Blend: AUG-CC-PVTZ
    Number of shells: 138
    Number of basis function: 414
    Number of Cartesian functions: 480
    Spherical Harmonics?: true
    Max angular momentum: 3

   => Loading Basis Set <=

    Name: (AUG-CC-PVTZ AUX)
    Role: JKFIT
    Keyword: DF_BASIS_SCF
    atoms 1, 7             entry C          line   162 file /home/xy3866/psi4conda/share/psi4/basis/aug-cc-pvtz-jkfit.gbs 
    atoms 2, 5-6, 8, 11-12 entry H          line    70 file /home/xy3866/psi4conda/share/psi4/basis/aug-cc-pvtz-jkfit.gbs 
    atoms 3, 9             entry O          line   286 file /home/xy3866/psi4conda/share/psi4/basis/aug-cc-pvtz-jkfit.gbs 
    atoms 4, 10            entry N          line   224 file /home/xy3866/psi4conda/share/psi4/basis/aug-cc-pvtz-jkfit.gbs 

  ==> Pre-Iterations <==

   -------------------------------------------------------
    Irrep   Nso     Nmo     Nalpha   Nbeta   Ndocc  Nsocc
   -------------------------------------------------------
     A        414     414       0       0       0       0
   -------------------------------------------------------
    Total     414     414      12      12      12       0
   -------------------------------------------------------

  ==> Integral Setup <==

  ==> DiskDFJK: Density-Fitted J/K Matrices <==

    J tasked:                  Yes
    K tasked:                  Yes
    wK tasked:                  No
    OpenMP threads:              4
    Integrals threads:           4
    Memory [MiB]:            22888
    Algorithm:                Core
    Integral Cache:           LOAD
    Schwarz Cutoff:          1E-12
    Fitting Condition:       1E-10

   => Auxiliary Basis Set <=

  Basis Set: (AUG-CC-PVTZ AUX)
    Blend: AUG-CC-PVTZ-JKFIT
    Number of shells: 264
    Number of basis function: 900
    Number of Cartesian functions: 1116
    Spherical Harmonics?: true
    Max angular momentum: 4

  Minimum eigenvalue in the overlap matrix is 3.2809390459E-05.
  Using Symmetric Orthogonalization.

  SCF Guess: Superposition of Atomic Densities via on-the-fly atomic UHF.

  ==> Iterations <==

                           Total Energy        Delta E     RMS |[F,P]|

   @DF-RHF iter SAD:  -168.20327164943870   -1.68203e+02   0.00000e+00 
   @DF-RHF iter   1:  -168.87965448310450   -6.76383e-01   1.29327e-03 DIIS
   @DF-RHF iter   2:  -168.95778708010386   -7.81326e-02   8.83335e-04 DIIS
   @DF-RHF iter   3:  -169.00150883034004   -4.37218e-02   1.26831e-04 DIIS
   @DF-RHF iter   4:  -169.00294898744596   -1.44016e-03   5.48101e-05 DIIS
   @DF-RHF iter   5:  -169.00325239665747   -3.03409e-04   1.09760e-05 DIIS
   @DF-RHF iter   6:  -169.00328241039421   -3.00137e-05   5.23309e-06 DIIS
   @DF-RHF iter   7:  -169.00328872096566   -6.31057e-06   2.10863e-06 DIIS
   @DF-RHF iter   8:  -169.00328983023863   -1.10927e-06   6.37040e-07 DIIS
   @DF-RHF iter   9:  -169.00328993418577   -1.03947e-07   1.75743e-07 DIIS
   @DF-RHF iter  10:  -169.00328994234761   -8.16183e-09   4.34732e-08 DIIS
   @DF-RHF iter  11:  -169.00328994275455   -4.06942e-10   7.78488e-09 DIIS
  Energy and wave function converged.


  ==> Post-Iterations <==

    Orbital Energies [Eh]
    ---------------------

    Doubly Occupied:                                                      

       1A    -20.526937     2A    -15.602087     3A    -11.356548  
       4A     -1.376928     5A     -1.227371     6A     -0.854903  
       7A     -0.756202     8A     -0.677329     9A     -0.603161  
      10A     -0.571941    11A     -0.435225    12A     -0.422128  

    Virtual:                                                              

      13A      0.018549    14A      0.029370    15A      0.039881  
      16A      0.055276    17A      0.056450    18A      0.069420  
      19A      0.086097    20A      0.086590    21A      0.089455  
      22A      0.096954    23A      0.110093    24A      0.124958  
      25A      0.128934    26A      0.133749    27A      0.138605  
      28A      0.146700    29A      0.152590    30A      0.159145  
      31A      0.174052    32A      0.179493    33A      0.195144  
      34A      0.201172    35A      0.203131    36A      0.217548  
      37A      0.224155    38A      0.248741    39A      0.250554  
      40A      0.257786    41A      0.258325    42A      0.269626  
      43A      0.279194    44A      0.289260    45A      0.300474  
      46A      0.303615    47A      0.307806    48A      0.316519  
      49A      0.330278    50A      0.330828    51A      0.345751  
      52A      0.350818    53A      0.356930    54A      0.366232  
      55A      0.370727    56A      0.386355    57A      0.387493  
      58A      0.395589    59A      0.399494    60A      0.401455  
      61A      0.408645    62A      0.422033    63A      0.427510  
      64A      0.448126    65A      0.448866    66A      0.452593  
      67A      0.469430    68A      0.497254    69A      0.498161  
      70A      0.501960    71A      0.524425    72A      0.533846  
      73A      0.537857    74A      0.547257    75A      0.558644  
      76A      0.567096    77A      0.570745    78A      0.584267  
      79A      0.621566    80A      0.623360    81A      0.639553  
      82A      0.647217    83A      0.652913    84A      0.662974  
      85A      0.678264    86A      0.688980    87A      0.705395  
      88A      0.725493    89A      0.728958    90A      0.741837  
      91A      0.751578    92A      0.751811    93A      0.757410  
      94A      0.785968    95A      0.809100    96A      0.816489  
      97A      0.832290    98A      0.840064    99A      0.857046  
     100A      0.859402   101A      0.863885   102A      0.881662  
     103A      0.881995   104A      0.897170   105A      0.904225  
     106A      0.907369   107A      0.921424   108A      0.922822  
     109A      0.934562   110A      0.937793   111A      0.949537  
     112A      0.950864   113A      0.973595   114A      0.985632  
     115A      0.986427   116A      1.004966   117A      1.010557  
     118A      1.015667   119A      1.022222   120A      1.043525  
     121A      1.060420   122A      1.060463   123A      1.069314  
     124A      1.073345   125A      1.084393   126A      1.092289  
     127A      1.093834   128A      1.099916   129A      1.124879  
     130A      1.133196   131A      1.134868   132A      1.156774  
     133A      1.162937   134A      1.167254   135A      1.169900  
     136A      1.198538   137A      1.207454   138A      1.224210  
     139A      1.255012   140A      1.256909   141A      1.272577  
     142A      1.280927   143A      1.290791   144A      1.293357  
     145A      1.315233   146A      1.331798   147A      1.344240  
     148A      1.357641   149A      1.376560   150A      1.377608  
     151A      1.405228   152A      1.413540   153A      1.421186  
     154A      1.447370   155A      1.449793   156A      1.468948  
     157A      1.470014   158A      1.496236   159A      1.499532  
     160A      1.518846   161A      1.531802   162A      1.555698  
     163A      1.585343   164A      1.602059   165A      1.617108  
     166A      1.629316   167A      1.632389   168A      1.647631  
     169A      1.672841   170A      1.674209   171A      1.685708  
     172A      1.689062   173A      1.690086   174A      1.729659  
     175A      1.730526   176A      1.747121   177A      1.754262  
     178A      1.776008   179A      1.781239   180A      1.835541  
     181A      1.839281   182A      1.845732   183A      1.874132  
     184A      1.876502   185A      1.905655   186A      1.908212  
     187A      1.932552   188A      1.971444   189A      1.984502  
     190A      2.015683   191A      2.026048   192A      2.051720  
     193A      2.052551   194A      2.093305   195A      2.097988  
     196A      2.107547   197A      2.109519   198A      2.152463  
     199A      2.164696   200A      2.206041   201A      2.224185  
     202A      2.240892   203A      2.260671   204A      2.324572  
     205A      2.334025   206A      2.349668   207A      2.349952  
     208A      2.374428   209A      2.387339   210A      2.428486  
     211A      2.445987   212A      2.466400   213A      2.473259  
     214A      2.515352   215A      2.520129   216A      2.541591  
     217A      2.569865   218A      2.570749   219A      2.627670  
     220A      2.634206   221A      2.644213   222A      2.654137  
     223A      2.686556   224A      2.686948   225A      2.700035  
     226A      2.718821   227A      2.735043   228A      2.739458  
     229A      2.746186   230A      2.779318   231A      2.800578  
     232A      2.813617   233A      2.830394   234A      2.866015  
     235A      2.899928   236A      2.908746   237A      2.924720  
     238A      2.950396   239A      2.954096   240A      2.975101  
     241A      3.003758   242A      3.016360   243A      3.047190  
     244A      3.081511   245A      3.123694   246A      3.159904  
     247A      3.195498   248A      3.197250   249A      3.204982  
     250A      3.247688   251A      3.299771   252A      3.339414  
     253A      3.356160   254A      3.394593   255A      3.419696  
     256A      3.423699   257A      3.471103   258A      3.511695  
     259A      3.539297   260A      3.563237   261A      3.586853  
     262A      3.614264   263A      3.708898   264A      3.737860  
     265A      3.766552   266A      3.833475   267A      3.839076  
     268A      3.856514   269A      3.921685   270A      3.969572  
     271A      4.058263   272A      4.080654   273A      4.089386  
     274A      4.110901   275A      4.110933   276A      4.133612  
     277A      4.155586   278A      4.175373   279A      4.187205  
     280A      4.207090   281A      4.228098   282A      4.242468  
     283A      4.318021   284A      4.355348   285A      4.373495  
     286A      4.409414   287A      4.427930   288A      4.444974  
     289A      4.502152   290A      4.506054   291A      4.541344  
     292A      4.557604   293A      4.567719   294A      4.621001  
     295A      4.646467   296A      4.689898   297A      4.698495  
     298A      4.728564   299A      4.764310   300A      4.783313  
     301A      4.791594   302A      4.826066   303A      4.859642  
     304A      4.877255   305A      4.894108   306A      4.912042  
     307A      4.939996   308A      4.944343   309A      4.982520  
     310A      4.984104   311A      5.001623   312A      5.044595  
     313A      5.054785   314A      5.084140   315A      5.114639  
     316A      5.155833   317A      5.162439   318A      5.209869  
     319A      5.220873   320A      5.230325   321A      5.277629  
     322A      5.307128   323A      5.316919   324A      5.325615  
     325A      5.369182   326A      5.382603   327A      5.389286  
     328A      5.409902   329A      5.444641   330A      5.478137  
     331A      5.552412   332A      5.564145   333A      5.580554  
     334A      5.645206   335A      5.658668   336A      5.703520  
     337A      5.711726   338A      5.814418   339A      5.830268  
     340A      5.839062   341A      5.912355   342A      5.931178  
     343A      5.979628   344A      6.076323   345A      6.099989  
     346A      6.149716   347A      6.179288   348A      6.229454  
     349A      6.322823   350A      6.357453   351A      6.381498  
     352A      6.495664   353A      6.591483   354A      6.600760  
     355A      6.615384   356A      6.688421   357A      6.702460  
     358A      6.717422   359A      6.793925   360A      6.866841  
     361A      6.901739   362A      6.906768   363A      6.975518  
     364A      7.068283   365A      7.106854   366A      7.129286  
     367A      7.173456   368A      7.237517   369A      7.324951  
     370A      7.338286   371A      7.384026   372A      7.399967  
     373A      7.516302   374A      7.631265   375A      7.637853  
     376A      7.650476   377A      7.716998   378A      7.718177  
     379A      7.725226   380A      7.763982   381A      7.800932  
     382A      7.903055   383A      7.946831   384A      7.961774  
     385A      8.022140   386A      8.075856   387A      8.106605  
     388A      8.148209   389A      8.214291   390A      8.478521  
     391A      8.670436   392A      8.794246   393A      9.150579  
     394A      9.384521   395A      9.521670   396A      9.799118  
     397A      9.860191   398A     10.074733   399A     10.138559  
     400A     10.454163   401A     10.628580   402A     11.199261  
     403A     11.727961   404A     11.864479   405A     12.457667  
     406A     12.638927   407A     12.948632   408A     13.987526  
     409A     15.941120   410A     17.680599   411A     18.819047  
     412A     51.355955   413A     61.805705   414A     66.997172  

    Final Occupation by Irrep:
              A 
    DOCC [    12 ]

  @DF-RHF Final Energy:  -169.00328994275455

   => Energetics <=

    Nuclear Repulsion Energy =             71.1611145121232624
    One-Electron Energy =                -371.5072876112723179
    Two-Electron Energy =                 131.3428831563944925
    Total Energy =                       -169.0032899427545487

Computation Completed


Properties will be evaluated at   0.000000,   0.000000,   0.000000 [a0]

Properties computed using the SCF density matrix

  Nuclear Dipole Moment: [e a0]
     X:   -74.3554      Y:     7.0434      Z:    -0.0000

  Electronic Dipole Moment: [e a0]
     X:    73.7331      Y:    -8.6855      Z:     0.0000

  Dipole Moment: [e a0]
     X:    -0.6223      Y:    -1.6421      Z:    -0.0000     Total:     1.7561

  Dipole Moment: [D]
     X:    -1.5818      Y:    -4.1738      Z:    -0.0000     Total:     4.4634


*** tstop() called on node51.bme.utexas.edu at Tue Sep 10 12:22:26 2019
Module time:
	user time   =      40.79 seconds =       0.68 minutes
	system time =       0.89 seconds =       0.01 minutes
	total time  =         11 seconds =       0.18 minutes
Total time:
	user time   =     154.09 seconds =       2.57 minutes
	system time =       3.51 seconds =       0.06 minutes
	total time  =         43 seconds =       0.72 minutes
  Constructing Basis Sets for SAPT...

   => Loading Basis Set <=

    Name: (AUG-CC-PVTZ AUX)
    Role: RIFIT
    Keyword: DF_BASIS_SAPT
    atoms 1, 7             entry C          line   148 file /home/xy3866/psi4conda/share/psi4/basis/aug-cc-pvtz-ri.gbs 
    atoms 2, 5-6, 8, 11-12 entry H          line    30 file /home/xy3866/psi4conda/share/psi4/basis/aug-cc-pvtz-ri.gbs 
    atoms 3, 9             entry O          line   264 file /home/xy3866/psi4conda/share/psi4/basis/aug-cc-pvtz-ri.gbs 
    atoms 4, 10            entry N          line   206 file /home/xy3866/psi4conda/share/psi4/basis/aug-cc-pvtz-ri.gbs 


  //>>>>>>>>>>>>>>>>>>>>>>>>>>>>>>>>>>>//
  //               SAPT2+              //
  //<<<<<<<<<<<<<<<<<<<<<<<<<<<<<<<<<<<//


*** tstart() called on node51.bme.utexas.edu
*** at Tue Sep 10 12:22:26 2019

        SAPT2+  
    Ed Hohenstein
     6 June 2009

      Orbital Information
  --------------------------
    NSO        =       414
    NMO        =       414
    NRI        =       912
    NOCC A     =        12
    NOCC B     =        12
    FOCC A     =         3
    FOCC B     =         3
    NVIR A     =       402
    NVIR B     =       402

    Estimated memory usage: 1737.6 MB

    Natural Orbital Cutoff:   1.000E-06
    Disp(T3) Truncation:            Yes
    CCD (vv|vv) Truncation:         Yes
    MBPT T2 Truncation:             Yes

    Monomer A: 219 virtual orbitals dropped
    Monomer B: 219 virtual orbitals dropped

    Elst10,r            =    -0.038962650174 [Eh]
    Exch10 (S^2)        =     0.033901664263 [Eh]
    Exch10              =     0.034296868846 [Eh]
    Ind20,r (A<-B)      =    -0.008833537812 [Eh]
    Ind20,r (B<-A)      =    -0.008833537811 [Eh]
    Ind20,r             =    -0.017667075623 [Eh]
    Exch-Ind20,r (A<-B) =     0.004539338614 [Eh]
    Exch-Ind20,r (B<-A) =     0.004539338614 [Eh]
    Exch-Ind20,r        =     0.009078677228 [Eh]
    Disp20              =    -0.012997368692 [Eh]
    Disp20 (NO)         =    -0.011331077070 [Eh]
    Exch-Disp20         =     0.002419792694 [Eh]
    Elst12,r            =     0.001444163510 [Eh]
    Exch11              =     0.000133103233 [Eh]
    Exch12              =     0.005024681555 [Eh]
    Ind22               =    -0.002427052679 [Eh]
    Disp21              =     0.000870701642 [Eh]
    Disp22 (SDQ)        =    -0.000170131857 [Eh]

    (i =   1 of   9)         26 seconds
    (i =   2 of   9)         52 seconds
    (i =   3 of   9)         78 seconds
    (i =   4 of   9)        104 seconds
    (i =   5 of   9)        129 seconds
    (i =   6 of   9)        156 seconds
    (i =   7 of   9)        182 seconds
    (i =   8 of   9)        209 seconds
    (i =   9 of   9)        236 seconds

    Disp220 (T)         =    -0.001063162921 [Eh]

    (i =   1 of   9)         29 seconds
    (i =   2 of   9)         57 seconds
    (i =   3 of   9)         86 seconds
    (i =   4 of   9)        114 seconds
    (i =   5 of   9)        143 seconds
    (i =   6 of   9)        172 seconds
    (i =   7 of   9)        201 seconds
    (i =   8 of   9)        230 seconds
    (i =   9 of   9)        260 seconds

    Disp202 (T)         =    -0.001063162921 [Eh]

    Disp22 (T)          =    -0.002126325843 [Eh]

    Est. Disp220 (T)    =    -0.001219506353 [Eh]
    Est. Disp202 (T)    =    -0.001219506353 [Eh]

    Est. Disp22 (T)     =    -0.002439012705 [Eh]

    SAPT Results 
  --------------------------------------------------------------------------------------------------------
    Electrostatics                -37.51848666 [mEh]     -23.54320582 [kcal/mol]     -98.50477317 [kJ/mol]
      Elst10,r                    -38.96265017 [mEh]     -24.44943211 [kcal/mol]    -102.29642394 [kJ/mol]
      Elst12,r                      1.44416351 [mEh]       0.90622628 [kcal/mol]       3.79165077 [kJ/mol]

    Exchange                       39.45465363 [mEh]      24.75816894 [kcal/mol]     103.58817884 [kJ/mol]
      Exch10                       34.29686885 [mEh]      21.52161012 [kcal/mol]      90.04641675 [kJ/mol]
      Exch10(S^2)                  33.90166426 [mEh]      21.27361550 [kcal/mol]      89.00880726 [kJ/mol]
      Exch11(S^2)                   0.13310323 [mEh]       0.08352354 [kcal/mol]       0.34946249 [kJ/mol]
      Exch12(S^2)                   5.02468155 [mEh]       3.15303528 [kcal/mol]      13.19229960 [kJ/mol]

    Induction                     -15.96049260 [mEh]     -10.01536031 [kcal/mol]     -41.90426755 [kJ/mol]
      Ind20,r                     -17.66707562 [mEh]     -11.08625733 [kcal/mol]     -46.38490066 [kJ/mol]
      Ind22                        -2.42705268 [mEh]      -1.52299855 [kcal/mol]      -6.37222593 [kJ/mol]
      Exch-Ind20,r                  9.07867723 [mEh]       5.69695597 [kcal/mol]      23.83606378 [kJ/mol]
      Exch-Ind22                    1.24720290 [mEh]       0.78263163 [kcal/mol]       3.27453075 [kJ/mol]
      delta HF,r (2)               -6.19224442 [mEh]      -3.88569204 [kcal/mol]     -16.25773549 [kJ/mol]

    Dispersion                    -12.31601892 [mEh]      -7.72841855 [kcal/mol]     -32.33570321 [kJ/mol]
      Disp20                      -12.99736869 [mEh]      -8.15597199 [kcal/mol]     -34.12458680 [kJ/mol]
      Disp21                        0.87070164 [mEh]       0.54637353 [kcal/mol]       2.28602685 [kJ/mol]
      Disp22 (SDQ)                 -0.17013186 [mEh]      -0.10675935 [kcal/mol]      -0.44668113 [kJ/mol]
      Disp22 (T)                   -2.12632584 [mEh]      -1.33428961 [kcal/mol]      -5.58266773 [kJ/mol]
      Est. Disp22 (T)              -2.43901271 [mEh]      -1.53050358 [kcal/mol]      -6.40362698 [kJ/mol]
      Exch-Disp20                   2.41979269 [mEh]       1.51844284 [kcal/mol]       6.35316484 [kJ/mol]

  Total HF                        -19.44642415 [mEh]     -12.20281538 [kcal/mol]     -51.05657956 [kJ/mol]
  Total SAPT0                     -30.02400014 [mEh]     -18.84034453 [kcal/mol]     -78.82800152 [kJ/mol]
  Total SAPT2                     -24.60190163 [mEh]     -15.43792634 [kcal/mol]     -64.59228383 [kJ/mol]
  Total SAPT2+                    -26.34034455 [mEh]     -16.52881575 [kcal/mol]     -69.15656508 [kJ/mol]

  Special recipe for scaled SAPT0 (see Manual):
    Electrostatics sSAPT0         -38.96265017 [mEh]     -24.44943211 [kcal/mol]    -102.29642394 [kJ/mol]
    Exchange sSAPT0                34.29686885 [mEh]      21.52161012 [kcal/mol]      90.04641675 [kJ/mol]
    Induction sSAPT0              -14.45942644 [mEh]      -9.07342707 [kcal/mol]     -37.96321888 [kJ/mol]
    Dispersion sSAPT0             -10.49196033 [mEh]      -6.58380450 [kcal/mol]     -27.54663804 [kJ/mol]
  Total sSAPT0                    -29.61716809 [mEh]     -18.58505356 [kcal/mol]     -77.75986411 [kJ/mol]
  --------------------------------------------------------------------------------------------------------

*** tstop() called on node51.bme.utexas.edu at Tue Sep 10 12:35:22 2019
Module time:
	user time   =    2700.62 seconds =      45.01 minutes
	system time =      89.47 seconds =       1.49 minutes
	total time  =        776 seconds =      12.93 minutes
Total time:
	user time   =    2855.01 seconds =      47.58 minutes
	system time =      93.00 seconds =       1.55 minutes
	total time  =        819 seconds =      13.65 minutes

    Psi4 stopped on: Tuesday, 10 September 2019 12:35PM
    Psi4 wall time for execution: 0:13:39.04

*** Psi4 exiting successfully. Buy a developer a beer!
