
    -----------------------------------------------------------------------
          Psi4: An Open-Source Ab Initio Electronic Structure Package
                               Psi4 1.3.2 release

                         Git: Rev {HEAD} ecbda83 


    R. M. Parrish, L. A. Burns, D. G. A. Smith, A. C. Simmonett,
    A. E. DePrince III, E. G. Hohenstein, U. Bozkaya, A. Yu. Sokolov,
    R. Di Remigio, R. M. Richard, J. F. Gonthier, A. M. James,
    H. R. McAlexander, A. Kumar, M. Saitow, X. Wang, B. P. Pritchard,
    P. Verma, H. F. Schaefer III, K. Patkowski, R. A. King, E. F. Valeev,
    F. A. Evangelista, J. M. Turney, T. D. Crawford, and C. D. Sherrill,
    J. Chem. Theory Comput. 13(7) pp 3185--3197 (2017).
    (doi: 10.1021/acs.jctc.7b00174)


                         Additional Contributions by
    P. Kraus, H. Kruse, M. H. Lechner, M. C. Schieber, R. A. Shaw,
    A. Alenaizan, R. Galvelis, Z. L. Glick, S. Lehtola, and J. P. Misiewicz

    -----------------------------------------------------------------------


    Psi4 started on: Monday, 09 September 2019 10:21PM

    Process ID: 64984
    Host:       node54.bme.utexas.edu
    PSIDATADIR: /home/xy3866/psi4conda/share/psi4
    Memory:     500.0 MiB
    Threads:    4
    
  ==> Input File <==

--------------------------------------------------------------------------
#psi4
#
memory 32 gb

molecule  {
0 1
  C        2.1022740    -0.1999910     0.0000010
  H        3.1931760    -0.2048250     0.0000000
  N        1.3929100    -1.2773340     0.0000000
  H        2.0119970    -2.0793170    -0.0000010
  N        1.5658380     1.0343930     0.0000000
  H        0.5512430     1.1716950     0.0000000
  H        2.1722770     1.8295020    -0.0000010
--
0 1
  C       -2.1022740     0.1999910     0.0000000
  H       -3.1931760     0.2048250     0.0000000
  N       -1.3929100     1.2773340     0.0000000
  H       -2.0119970     2.0793170     0.0000000
  N       -1.5658380    -1.0343930     0.0000000
  H       -0.5512430    -1.1716950     0.0000000
  H       -2.1722770    -1.8295020     0.0000000
units angstrom
no_reorient  #important for SAPT in psi4, default
symmetry c1  #important for SAPT in psi4, default
}

set {
basis aug-cc-pVTZ
scf_type DF
freeze_core True
}
energy('sapt2+')
--------------------------------------------------------------------------

  Memory set to  29.802 GiB by Python driver.

  //>>>>>>>>>>>>>>>>>>>>>>>>>>>>>>>>>>>//
  //              Dimer HF             //
  //<<<<<<<<<<<<<<<<<<<<<<<<<<<<<<<<<<<//


*** tstart() called on node54.bme.utexas.edu
*** at Mon Sep  9 22:21:44 2019

   => Loading Basis Set <=

    Name: AUG-CC-PVTZ
    Role: ORBITAL
    Keyword: BASIS
    atoms 1, 8                    entry C          line   235 file /home/xy3866/psi4conda/share/psi4/basis/aug-cc-pvtz.gbs 
    atoms 2, 4, 6-7, 9, 11, 13-14 entry H          line    36 file /home/xy3866/psi4conda/share/psi4/basis/aug-cc-pvtz.gbs 
    atoms 3, 5, 10, 12            entry N          line   281 file /home/xy3866/psi4conda/share/psi4/basis/aug-cc-pvtz.gbs 


         ---------------------------------------------------------
                                   SCF
               by Justin Turney, Rob Parrish, Andy Simmonett
                          and Daniel G. A. Smith
                              RHF Reference
                        4 Threads,  30517 MiB Core
         ---------------------------------------------------------

  ==> Geometry <==

    Molecular point group: c1
    Full point group: C1

    Geometry (in Angstrom), charge = 0, multiplicity = 1:

       Center              X                  Y                   Z               Mass       
    ------------   -----------------  -----------------  -----------------  -----------------
         C            2.102274000000    -0.199991000000     0.000000886638    12.000000000000
         H            3.193176000000    -0.204825000000    -0.000000113362     1.007825032230
         N            1.392910000000    -1.277334000000    -0.000000113362    14.003074004430
         H            2.011997000000    -2.079317000000    -0.000001113362     1.007825032230
         N            1.565838000000     1.034393000000    -0.000000113362    14.003074004430
         H            0.551243000000     1.171695000000    -0.000000113362     1.007825032230
         H            2.172277000000     1.829502000000    -0.000001113362     1.007825032230
         C           -2.102274000000     0.199991000000    -0.000000113362    12.000000000000
         H           -3.193176000000     0.204825000000    -0.000000113362     1.007825032230
         N           -1.392910000000     1.277334000000    -0.000000113362    14.003074004430
         H           -2.011997000000     2.079317000000    -0.000000113362     1.007825032230
         N           -1.565838000000    -1.034393000000    -0.000000113362    14.003074004430
         H           -0.551243000000    -1.171695000000    -0.000000113362     1.007825032230
         H           -2.172277000000    -1.829502000000    -0.000000113362     1.007825032230

  Running in c1 symmetry.

  Rotational constants: A =      0.18002  B =      0.06262  C =      0.04646 [cm^-1]
  Rotational constants: A =   5396.89555  B =   1877.33637  C =   1392.83273 [MHz]
  Nuclear repulsion =  228.306622719188539

  Charge       = 0
  Multiplicity = 1
  Electrons    = 48
  Nalpha       = 24
  Nbeta        = 24

  ==> Algorithm <==

  SCF Algorithm Type is DF.
  DIIS enabled.
  MOM disabled.
  Fractional occupation disabled.
  Guess Type is SAD.
  Energy threshold   = 1.00e-08
  Density threshold  = 1.00e-08
  Integral threshold = 0.00e+00

  ==> Primary Basis <==

  Basis Set: AUG-CC-PVTZ
    Blend: AUG-CC-PVTZ
    Number of shells: 156
    Number of basis function: 460
    Number of Cartesian functions: 530
    Spherical Harmonics?: true
    Max angular momentum: 3

   => Loading Basis Set <=

    Name: (AUG-CC-PVTZ AUX)
    Role: JKFIT
    Keyword: DF_BASIS_SCF
    atoms 1, 8                    entry C          line   162 file /home/xy3866/psi4conda/share/psi4/basis/aug-cc-pvtz-jkfit.gbs 
    atoms 2, 4, 6-7, 9, 11, 13-14 entry H          line    70 file /home/xy3866/psi4conda/share/psi4/basis/aug-cc-pvtz-jkfit.gbs 
    atoms 3, 5, 10, 12            entry N          line   224 file /home/xy3866/psi4conda/share/psi4/basis/aug-cc-pvtz-jkfit.gbs 

  ==> Pre-Iterations <==

   -------------------------------------------------------
    Irrep   Nso     Nmo     Nalpha   Nbeta   Ndocc  Nsocc
   -------------------------------------------------------
     A        460     460       0       0       0       0
   -------------------------------------------------------
    Total     460     460      24      24      24       0
   -------------------------------------------------------

  ==> Integral Setup <==

  ==> DiskDFJK: Density-Fitted J/K Matrices <==

    J tasked:                  Yes
    K tasked:                  Yes
    wK tasked:                  No
    OpenMP threads:              4
    Integrals threads:           4
    Memory [MiB]:            22888
    Algorithm:                Core
    Integral Cache:           SAVE
    Schwarz Cutoff:          1E-12
    Fitting Condition:       1E-10

   => Auxiliary Basis Set <=

  Basis Set: (AUG-CC-PVTZ AUX)
    Blend: AUG-CC-PVTZ-JKFIT
    Number of shells: 292
    Number of basis function: 992
    Number of Cartesian functions: 1226
    Spherical Harmonics?: true
    Max angular momentum: 4

  Minimum eigenvalue in the overlap matrix is 1.8836959222E-05.
  Using Symmetric Orthogonalization.

  SCF Guess: Superposition of Atomic Densities via on-the-fly atomic UHF.

  ==> Iterations <==

                           Total Energy        Delta E     RMS |[F,P]|

   @DF-RHF iter SAD:  -297.01496143961526   -2.97015e+02   0.00000e+00 
   @DF-RHF iter   1:  -298.04004737527612   -1.02509e+00   1.62331e-03 DIIS
   @DF-RHF iter   2:  -298.22952277753603   -1.89475e-01   9.14948e-04 DIIS
   @DF-RHF iter   3:  -298.30019016792863   -7.06674e-02   1.30160e-04 DIIS
   @DF-RHF iter   4:  -298.30271679093141   -2.52662e-03   5.83097e-05 DIIS
   @DF-RHF iter   5:  -298.30310488985850   -3.88099e-04   1.16923e-05 DIIS
   @DF-RHF iter   6:  -298.30315057685061   -4.56870e-05   5.51282e-06 DIIS
   @DF-RHF iter   7:  -298.30315916607134   -8.58922e-06   2.10202e-06 DIIS
   @DF-RHF iter   8:  -298.30316093334864   -1.76728e-06   7.47448e-07 DIIS
   @DF-RHF iter   9:  -298.30316112723506   -1.93886e-07   2.47353e-07 DIIS
   @DF-RHF iter  10:  -298.30316114862035   -2.13853e-08   6.52561e-08 DIIS
   @DF-RHF iter  11:  -298.30316115013920   -1.51886e-09   1.27701e-08 DIIS
   @DF-RHF iter  12:  -298.30316115018525   -4.60432e-11   2.00140e-09 DIIS
  Energy and wave function converged.


  ==> Post-Iterations <==

    Orbital Energies [Eh]
    ---------------------

    Doubly Occupied:                                                      

       1A    -15.553224     2A    -15.553224     3A    -15.514964  
       4A    -15.514964     5A    -11.310493     6A    -11.310493  
       7A     -1.248751     8A     -1.242025     9A     -1.133396  
      10A     -1.125028    11A     -0.825286    12A     -0.808397  
      13A     -0.737321    14A     -0.726076    15A     -0.648144  
      16A     -0.615798    17A     -0.608089    18A     -0.601941  
      19A     -0.519458    20A     -0.512006    21A     -0.441086  
      22A     -0.407206    23A     -0.356391    24A     -0.345516  

    Virtual:                                                              

      25A      0.028524    26A      0.032171    27A      0.037810  
      28A      0.049520    29A      0.050704    30A      0.070313  
      31A      0.079258    32A      0.083043    33A      0.086748  
      34A      0.089987    35A      0.120955    36A      0.130893  
      37A      0.131586    38A      0.132994    39A      0.139121  
      40A      0.139853    41A      0.140787    42A      0.146556  
      43A      0.159581    44A      0.160635    45A      0.168815  
      46A      0.174474    47A      0.188677    48A      0.194182  
      49A      0.212831    50A      0.215152    51A      0.221674  
      52A      0.226590    53A      0.230318    54A      0.239027  
      55A      0.251308    56A      0.262551    57A      0.283891  
      58A      0.297431    59A      0.298337    60A      0.299796  
      61A      0.307197    62A      0.313374    63A      0.314720  
      64A      0.322187    65A      0.328938    66A      0.336632  
      67A      0.350397    68A      0.360718    69A      0.366450  
      70A      0.368137    71A      0.369489    72A      0.376521  
      73A      0.379509    74A      0.386273    75A      0.396183  
      76A      0.396367    77A      0.401115    78A      0.402173  
      79A      0.433487    80A      0.436345    81A      0.438174  
      82A      0.439957    83A      0.448035    84A      0.449721  
      85A      0.455533    86A      0.463659    87A      0.472955  
      88A      0.474386    89A      0.509261    90A      0.515619  
      91A      0.528068    92A      0.528587    93A      0.533085  
      94A      0.542657    95A      0.546491    96A      0.561895  
      97A      0.571804    98A      0.573968    99A      0.581780  
     100A      0.603651   101A      0.619320   102A      0.622769  
     103A      0.643956   104A      0.645162   105A      0.646545  
     106A      0.658299   107A      0.661865   108A      0.673477  
     109A      0.675265   110A      0.690279   111A      0.699232  
     112A      0.717973   113A      0.724624   114A      0.725937  
     115A      0.729249   116A      0.751085   117A      0.773044  
     118A      0.773756   119A      0.774140   120A      0.774323  
     121A      0.781989   122A      0.787754   123A      0.796218  
     124A      0.799309   125A      0.803722   126A      0.812984  
     127A      0.860821   128A      0.864028   129A      0.894329  
     130A      0.894855   131A      0.904934   132A      0.906785  
     133A      0.924895   134A      0.929429   135A      0.933151  
     136A      0.938287   137A      0.952469   138A      0.956348  
     139A      0.957070   140A      0.960213   141A      0.973047  
     142A      0.983631   143A      0.994290   144A      0.996770  
     145A      1.015272   146A      1.024269   147A      1.024493  
     148A      1.029324   149A      1.033507   150A      1.041564  
     151A      1.059397   152A      1.064383   153A      1.084833  
     154A      1.086443   155A      1.092570   156A      1.111394  
     157A      1.114013   158A      1.122026   159A      1.137840  
     160A      1.144096   161A      1.153541   162A      1.159977  
     163A      1.175919   164A      1.180271   165A      1.194266  
     166A      1.218592   167A      1.222159   168A      1.222283  
     169A      1.236679   170A      1.249412   171A      1.255344  
     172A      1.262521   173A      1.272072   174A      1.272285  
     175A      1.279203   176A      1.287403   177A      1.295668  
     178A      1.315958   179A      1.331800   180A      1.341078  
     181A      1.352400   182A      1.367207   183A      1.378008  
     184A      1.381066   185A      1.392572   186A      1.404341  
     187A      1.430257   188A      1.432901   189A      1.443220  
     190A      1.447672   191A      1.456015   192A      1.459059  
     193A      1.476826   194A      1.482449   195A      1.486628  
     196A      1.487257   197A      1.488463   198A      1.496270  
     199A      1.512088   200A      1.524339   201A      1.534820  
     202A      1.536776   203A      1.553578   204A      1.578193  
     205A      1.579157   206A      1.581653   207A      1.595516  
     208A      1.613532   209A      1.632878   210A      1.653294  
     211A      1.659879   212A      1.678521   213A      1.696307  
     214A      1.707759   215A      1.715864   216A      1.729100  
     217A      1.736208   218A      1.791478   219A      1.802573  
     220A      1.807224   221A      1.822055   222A      1.829407  
     223A      1.851377   224A      1.898414   225A      1.912347  
     226A      1.946983   227A      1.972537   228A      1.980761  
     229A      1.982360   230A      1.989594   231A      2.004237  
     232A      2.007332   233A      2.038079   234A      2.051388  
     235A      2.078292   236A      2.080133   237A      2.095079  
     238A      2.130867   239A      2.132422   240A      2.154245  
     241A      2.157284   242A      2.158504   243A      2.173242  
     244A      2.187115   245A      2.220837   246A      2.237306  
     247A      2.238953   248A      2.268486   249A      2.269189  
     250A      2.286825   251A      2.296283   252A      2.301245  
     253A      2.311733   254A      2.322205   255A      2.351413  
     256A      2.363362   257A      2.399216   258A      2.412347  
     259A      2.437563   260A      2.453544   261A      2.488379  
     262A      2.506530   263A      2.514704   264A      2.518759  
     265A      2.540735   266A      2.550885   267A      2.566361  
     268A      2.571284   269A      2.575575   270A      2.594388  
     271A      2.647537   272A      2.656045   273A      2.667273  
     274A      2.680568   275A      2.699341   276A      2.705611  
     277A      2.717565   278A      2.727552   279A      2.727600  
     280A      2.764298   281A      2.794652   282A      2.824917  
     283A      2.857853   284A      2.918094   285A      2.986445  
     286A      2.990573   287A      3.045664   288A      3.087630  
     289A      3.114236   290A      3.141083   291A      3.158146  
     292A      3.235984   293A      3.273194   294A      3.285237  
     295A      3.396036   296A      3.407301   297A      3.433419  
     298A      3.453402   299A      3.500758   300A      3.505333  
     301A      3.599879   302A      3.617185   303A      3.629498  
     304A      3.693348   305A      3.699798   306A      3.704884  
     307A      3.775832   308A      3.795588   309A      3.816330  
     310A      3.826711   311A      3.839248   312A      3.859058  
     313A      3.875021   314A      3.890394   315A      3.933877  
     316A      3.934685   317A      3.982995   318A      4.028802  
     319A      4.036797   320A      4.077577   321A      4.094455  
     322A      4.094843   323A      4.110924   324A      4.111884  
     325A      4.142191   326A      4.145157   327A      4.163098  
     328A      4.165819   329A      4.212377   330A      4.215054  
     331A      4.239246   332A      4.240945   333A      4.262500  
     334A      4.280839   335A      4.282811   336A      4.310300  
     337A      4.323884   338A      4.343267   339A      4.351772  
     340A      4.352292   341A      4.379274   342A      4.390667  
     343A      4.418172   344A      4.428696   345A      4.470671  
     346A      4.471131   347A      4.502563   348A      4.540148  
     349A      4.540551   350A      4.585139   351A      4.619474  
     352A      4.635663   353A      4.641565   354A      4.656598  
     355A      4.662683   356A      4.681504   357A      4.699839  
     358A      4.720953   359A      4.768935   360A      4.774875  
     361A      4.783322   362A      4.787922   363A      4.834777  
     364A      4.846504   365A      4.855174   366A      4.886687  
     367A      4.887329   368A      4.894543   369A      4.911892  
     370A      4.921393   371A      4.925008   372A      4.936384  
     373A      4.981565   374A      5.004267   375A      5.014431  
     376A      5.042349   377A      5.043799   378A      5.064536  
     379A      5.122757   380A      5.141570   381A      5.173482  
     382A      5.216763   383A      5.221152   384A      5.230953  
     385A      5.248288   386A      5.259030   387A      5.267093  
     388A      5.281436   389A      5.340501   390A      5.392324  
     391A      5.405770   392A      5.453424   393A      5.460770  
     394A      5.486092   395A      5.497404   396A      5.507483  
     397A      5.542379   398A      5.552504   399A      5.555558  
     400A      5.569235   401A      5.626259   402A      5.628031  
     403A      5.647809   404A      5.652414   405A      5.698668  
     406A      5.706856   407A      5.729062   408A      5.749113  
     409A      5.749519   410A      5.766954   411A      5.784852  
     412A      5.792671   413A      5.828865   414A      5.860257  
     415A      5.881811   416A      5.888838   417A      5.937848  
     418A      5.978444   419A      5.992727   420A      5.997274  
     421A      6.027159   422A      6.063396   423A      6.118398  
     424A      6.138217   425A      6.186527   426A      6.188681  
     427A      6.196349   428A      6.199060   429A      6.233920  
     430A      6.236831   431A      6.288901   432A      6.313216  
     433A      6.391167   434A      6.404066   435A      6.570939  
     436A      6.578302   437A      6.624431   438A      6.645522  
     439A      6.687843   440A      6.698174   441A      6.703458  
     442A      6.776535   443A      6.932952   444A      6.984870  
     445A      7.083720   446A      7.096615   447A      7.438061  
     448A      7.557264   449A      7.575354   450A      7.581202  
     451A      7.702380   452A      7.749415   453A      7.858724  
     454A      7.908521   455A     17.107563   456A     17.250896  
     457A     17.420938   458A     17.823090   459A     18.980870  
     460A     19.045526  

    Final Occupation by Irrep:
              A 
    DOCC [    24 ]

  @DF-RHF Final Energy:  -298.30316115018525

   => Energetics <=

    Nuclear Repulsion Energy =            228.3066227191885389
    One-Electron Energy =                -857.9010113295171323
    Two-Electron Energy =                 331.2912274601433182
    Total Energy =                       -298.3031611501852467

Computation Completed


Properties will be evaluated at   0.000000,   0.000000,   0.000000 [a0]

Properties computed using the SCF density matrix

  Nuclear Dipole Moment: [e a0]
     X:     0.0000      Y:     0.0000      Z:    -0.0000

  Electronic Dipole Moment: [e a0]
     X:     0.0000      Y:    -0.0000      Z:     0.0000

  Dipole Moment: [e a0]
     X:     0.0000      Y:    -0.0000      Z:    -0.0000     Total:     0.0000

  Dipole Moment: [D]
     X:     0.0000      Y:    -0.0000      Z:    -0.0000     Total:     0.0000


*** tstop() called on node54.bme.utexas.edu at Mon Sep  9 22:22:07 2019
Module time:
	user time   =      85.81 seconds =       1.43 minutes
	system time =       1.48 seconds =       0.02 minutes
	total time  =         23 seconds =       0.38 minutes
Total time:
	user time   =      85.81 seconds =       1.43 minutes
	system time =       1.48 seconds =       0.02 minutes
	total time  =         23 seconds =       0.38 minutes

  //>>>>>>>>>>>>>>>>>>>>>>>>>>>>>>>>>>>//
  //            Monomer A HF           //
  //<<<<<<<<<<<<<<<<<<<<<<<<<<<<<<<<<<<//


*** tstart() called on node54.bme.utexas.edu
*** at Mon Sep  9 22:22:07 2019

   => Loading Basis Set <=

    Name: AUG-CC-PVTZ
    Role: ORBITAL
    Keyword: BASIS
    atoms 1, 8                    entry C          line   235 file /home/xy3866/psi4conda/share/psi4/basis/aug-cc-pvtz.gbs 
    atoms 2, 4, 6-7, 9, 11, 13-14 entry H          line    36 file /home/xy3866/psi4conda/share/psi4/basis/aug-cc-pvtz.gbs 
    atoms 3, 5, 10, 12            entry N          line   281 file /home/xy3866/psi4conda/share/psi4/basis/aug-cc-pvtz.gbs 


         ---------------------------------------------------------
                                   SCF
               by Justin Turney, Rob Parrish, Andy Simmonett
                          and Daniel G. A. Smith
                              RHF Reference
                        4 Threads,  30517 MiB Core
         ---------------------------------------------------------

  ==> Geometry <==

    Molecular point group: c1
    Full point group: C1

    Geometry (in Angstrom), charge = 0, multiplicity = 1:

       Center              X                  Y                   Z               Mass       
    ------------   -----------------  -----------------  -----------------  -----------------
         C            2.102274000000    -0.199991000000     0.000000886638    12.000000000000
         H            3.193176000000    -0.204825000000    -0.000000113362     1.007825032230
         N            1.392910000000    -1.277334000000    -0.000000113362    14.003074004430
         H            2.011997000000    -2.079317000000    -0.000001113362     1.007825032230
         N            1.565838000000     1.034393000000    -0.000000113362    14.003074004430
         H            0.551243000000     1.171695000000    -0.000000113362     1.007825032230
         H            2.172277000000     1.829502000000    -0.000001113362     1.007825032230
      Gh(C)          -2.102274000000     0.199991000000    -0.000000113362    12.000000000000
      Gh(H)          -3.193176000000     0.204825000000    -0.000000113362     1.007825032230
      Gh(N)          -1.392910000000     1.277334000000    -0.000000113362    14.003074004430
      Gh(H)          -2.011997000000     2.079317000000    -0.000000113362     1.007825032230
      Gh(N)          -1.565838000000    -1.034393000000    -0.000000113362    14.003074004430
      Gh(H)          -0.551243000000    -1.171695000000    -0.000000113362     1.007825032230
      Gh(H)          -2.172277000000    -1.829502000000    -0.000000113362     1.007825032230

  Running in c1 symmetry.

  Rotational constants: A =      0.18002  B =      0.06262  C =      0.04646 [cm^-1]
  Rotational constants: A =   5396.89555  B =   1877.33637  C =   1392.83273 [MHz]
  Nuclear repulsion =   72.180708619553769

  Charge       = 0
  Multiplicity = 1
  Electrons    = 24
  Nalpha       = 12
  Nbeta        = 12

  ==> Algorithm <==

  SCF Algorithm Type is DF.
  DIIS enabled.
  MOM disabled.
  Fractional occupation disabled.
  Guess Type is SAD.
  Energy threshold   = 1.00e-08
  Density threshold  = 1.00e-08
  Integral threshold = 0.00e+00

  ==> Primary Basis <==

  Basis Set: AUG-CC-PVTZ
    Blend: AUG-CC-PVTZ
    Number of shells: 156
    Number of basis function: 460
    Number of Cartesian functions: 530
    Spherical Harmonics?: true
    Max angular momentum: 3

   => Loading Basis Set <=

    Name: (AUG-CC-PVTZ AUX)
    Role: JKFIT
    Keyword: DF_BASIS_SCF
    atoms 1, 8                    entry C          line   162 file /home/xy3866/psi4conda/share/psi4/basis/aug-cc-pvtz-jkfit.gbs 
    atoms 2, 4, 6-7, 9, 11, 13-14 entry H          line    70 file /home/xy3866/psi4conda/share/psi4/basis/aug-cc-pvtz-jkfit.gbs 
    atoms 3, 5, 10, 12            entry N          line   224 file /home/xy3866/psi4conda/share/psi4/basis/aug-cc-pvtz-jkfit.gbs 

  ==> Pre-Iterations <==

   -------------------------------------------------------
    Irrep   Nso     Nmo     Nalpha   Nbeta   Ndocc  Nsocc
   -------------------------------------------------------
     A        460     460       0       0       0       0
   -------------------------------------------------------
    Total     460     460      12      12      12       0
   -------------------------------------------------------

  ==> Integral Setup <==

  ==> DiskDFJK: Density-Fitted J/K Matrices <==

    J tasked:                  Yes
    K tasked:                  Yes
    wK tasked:                  No
    OpenMP threads:              4
    Integrals threads:           4
    Memory [MiB]:            22888
    Algorithm:                Core
    Integral Cache:           LOAD
    Schwarz Cutoff:          1E-12
    Fitting Condition:       1E-10

   => Auxiliary Basis Set <=

  Basis Set: (AUG-CC-PVTZ AUX)
    Blend: AUG-CC-PVTZ-JKFIT
    Number of shells: 292
    Number of basis function: 992
    Number of Cartesian functions: 1226
    Spherical Harmonics?: true
    Max angular momentum: 4

  Minimum eigenvalue in the overlap matrix is 1.8836959222E-05.
  Using Symmetric Orthogonalization.

  SCF Guess: Superposition of Atomic Densities via on-the-fly atomic UHF.

  ==> Iterations <==

                           Total Energy        Delta E     RMS |[F,P]|

   @DF-RHF iter SAD:  -148.38772533460386   -1.48388e+02   0.00000e+00 
   @DF-RHF iter   1:  -148.99745343860099   -6.09728e-01   1.19323e-03 DIIS
   @DF-RHF iter   2:  -149.09945471491804   -1.02001e-01   7.04016e-04 DIIS
   @DF-RHF iter   3:  -149.14137592215937   -4.19212e-02   9.82751e-05 DIIS
   @DF-RHF iter   4:  -149.14279108254195   -1.41516e-03   4.86459e-05 DIIS
   @DF-RHF iter   5:  -149.14306866573068   -2.77583e-04   8.88096e-06 DIIS
   @DF-RHF iter   6:  -149.14309731833856   -2.86526e-05   4.19437e-06 DIIS
   @DF-RHF iter   7:  -149.14310202469005   -4.70635e-06   1.68832e-06 DIIS
   @DF-RHF iter   8:  -149.14310296642321   -9.41733e-07   4.98654e-07 DIIS
   @DF-RHF iter   9:  -149.14310305226110   -8.58379e-08   1.52296e-07 DIIS
   @DF-RHF iter  10:  -149.14310305983400   -7.57291e-09   3.78299e-08 DIIS
   @DF-RHF iter  11:  -149.14310306030754   -4.73534e-10   7.22534e-09 DIIS
  Energy and wave function converged.


  ==> Post-Iterations <==

    Orbital Energies [Eh]
    ---------------------

    Doubly Occupied:                                                      

       1A    -15.581654     2A    -15.519548     3A    -11.314763  
       4A     -1.259000     5A     -1.137049     6A     -0.829938  
       7A     -0.745812     8A     -0.639651     9A     -0.615822  
      10A     -0.530067    11A     -0.419651    12A     -0.359458  

    Virtual:                                                              

      13A      0.021351    14A      0.030410    15A      0.036829  
      16A      0.049894    17A      0.051467    18A      0.070229  
      19A      0.074794    20A      0.074929    21A      0.086365  
      22A      0.087453    23A      0.096935    24A      0.112828  
      25A      0.126482    26A      0.127664    27A      0.130581  
      28A      0.136286    29A      0.139042    30A      0.141968  
      31A      0.149412    32A      0.160803    33A      0.164250  
      34A      0.166904    35A      0.187499    36A      0.193914  
      37A      0.199677    38A      0.211759    39A      0.219425  
      40A      0.222674    41A      0.226906    42A      0.239500  
      43A      0.248674    44A      0.252603    45A      0.274584  
      46A      0.288832    47A      0.296140    48A      0.297381  
      49A      0.305793    50A      0.306540    51A      0.315537  
      52A      0.317866    53A      0.331957    54A      0.342630  
      55A      0.348348    56A      0.354445    57A      0.359546  
      58A      0.368374    59A      0.369614    60A      0.371824  
      61A      0.375695    62A      0.379420    63A      0.388438  
      64A      0.393571    65A      0.397483    66A      0.399116  
      67A      0.414992    68A      0.418244    69A      0.430130  
      70A      0.434602    71A      0.439855    72A      0.454813  
      73A      0.456733    74A      0.459116    75A      0.471215  
      76A      0.478528    77A      0.499830    78A      0.507048  
      79A      0.508670    80A      0.520077    81A      0.530094  
      82A      0.534982    83A      0.550292    84A      0.559937  
      85A      0.573075    86A      0.588580    87A      0.592520  
      88A      0.613819    89A      0.624701    90A      0.633451  
      91A      0.636528    92A      0.648369    93A      0.651299  
      94A      0.652914    95A      0.675305    96A      0.692179  
      97A      0.697645    98A      0.706317    99A      0.711349  
     100A      0.729936   101A      0.735760   102A      0.755415  
     103A      0.761099   104A      0.766153   105A      0.779677  
     106A      0.783996   107A      0.790884   108A      0.797341  
     109A      0.806014   110A      0.815750   111A      0.816839  
     112A      0.833413   113A      0.835216   114A      0.838578  
     115A      0.848938   116A      0.869207   117A      0.875182  
     118A      0.894410   119A      0.897339   120A      0.907545  
     121A      0.912809   122A      0.928977   123A      0.934657  
     124A      0.936344   125A      0.945781   126A      0.950046  
     127A      0.964173   128A      0.983449   129A      0.989420  
     130A      0.990461   131A      1.007671   132A      1.011423  
     133A      1.020669   134A      1.023068   135A      1.033366  
     136A      1.039943   137A      1.054216   138A      1.074017  
     139A      1.079626   140A      1.084978   141A      1.088561  
     142A      1.089333   143A      1.100694   144A      1.120238  
     145A      1.120872   146A      1.122753   147A      1.133276  
     148A      1.136676   149A      1.156120   150A      1.172203  
     151A      1.188589   152A      1.200870   153A      1.216035  
     154A      1.223787   155A      1.231139   156A      1.240197  
     157A      1.254386   158A      1.271073   159A      1.276871  
     160A      1.279651   161A      1.282337   162A      1.309474  
     163A      1.316728   164A      1.317108   165A      1.348348  
     166A      1.350688   167A      1.360431   168A      1.379266  
     169A      1.379744   170A      1.396504   171A      1.410785  
     172A      1.417552   173A      1.433191   174A      1.446663  
     175A      1.468059   176A      1.469157   177A      1.472830  
     178A      1.491732   179A      1.492520   180A      1.496870  
     181A      1.500458   182A      1.514697   183A      1.523286  
     184A      1.531975   185A      1.560060   186A      1.572968  
     187A      1.588887   188A      1.599512   189A      1.608276  
     190A      1.625805   191A      1.633976   192A      1.644840  
     193A      1.652690   194A      1.660676   195A      1.673066  
     196A      1.687910   197A      1.698568   198A      1.701731  
     199A      1.715469   200A      1.729975   201A      1.740651  
     202A      1.750095   203A      1.764212   204A      1.775229  
     205A      1.776937   206A      1.792503   207A      1.793122  
     208A      1.813123   209A      1.832187   210A      1.832778  
     211A      1.862162   212A      1.888260   213A      1.892183  
     214A      1.910415   215A      1.928940   216A      1.959722  
     217A      1.982821   218A      1.984779   219A      2.005602  
     220A      2.014443   221A      2.042216   222A      2.053924  
     223A      2.074083   224A      2.085870   225A      2.088331  
     226A      2.131756   227A      2.137969   228A      2.149652  
     229A      2.175870   230A      2.189350   231A      2.190727  
     232A      2.222182   233A      2.239020   234A      2.279204  
     235A      2.280567   236A      2.323472   237A      2.330299  
     238A      2.334844   239A      2.356997   240A      2.369745  
     241A      2.378074   242A      2.386963   243A      2.394862  
     244A      2.420011   245A      2.434182   246A      2.444244  
     247A      2.460884   248A      2.485204   249A      2.495203  
     250A      2.515938   251A      2.546042   252A      2.557138  
     253A      2.570055   254A      2.573289   255A      2.606317  
     256A      2.651101   257A      2.667194   258A      2.682303  
     259A      2.683267   260A      2.692837   261A      2.706392  
     262A      2.740782   263A      2.742867   264A      2.750735  
     265A      2.778296   266A      2.802921   267A      2.850276  
     268A      2.860746   269A      2.892764   270A      2.924795  
     271A      2.985725   272A      2.989014   273A      3.001893  
     274A      3.030350   275A      3.073883   276A      3.076846  
     277A      3.124826   278A      3.142033   279A      3.160855  
     280A      3.175559   281A      3.221941   282A      3.240277  
     283A      3.301985   284A      3.344640   285A      3.407125  
     286A      3.426224   287A      3.444801   288A      3.501182  
     289A      3.514025   290A      3.540453   291A      3.612695  
     292A      3.644682   293A      3.693949   294A      3.724281  
     295A      3.797234   296A      3.819412   297A      3.819805  
     298A      3.851864   299A      3.868660   300A      3.880004  
     301A      3.964878   302A      4.013740   303A      4.061071  
     304A      4.066639   305A      4.082115   306A      4.108720  
     307A      4.133680   308A      4.141259   309A      4.149987  
     310A      4.173420   311A      4.207105   312A      4.236027  
     313A      4.263306   314A      4.292796   315A      4.321238  
     316A      4.330967   317A      4.376493   318A      4.386766  
     319A      4.430303   320A      4.435804   321A      4.448401  
     322A      4.456024   323A      4.490774   324A      4.499010  
     325A      4.554613   326A      4.566186   327A      4.572264  
     328A      4.610908   329A      4.621581   330A      4.665054  
     331A      4.678683   332A      4.689578   333A      4.725246  
     334A      4.753284   335A      4.759144   336A      4.759539  
     337A      4.765131   338A      4.806802   339A      4.835787  
     340A      4.860880   341A      4.871644   342A      4.878817  
     343A      4.888758   344A      4.898075   345A      4.908466  
     346A      4.923017   347A      4.924497   348A      4.955295  
     349A      4.983606   350A      4.991442   351A      5.010292  
     352A      5.012780   353A      5.045574   354A      5.054350  
     355A      5.077280   356A      5.103542   357A      5.122105  
     358A      5.163299   359A      5.205899   360A      5.218440  
     361A      5.232262   362A      5.248760   363A      5.276131  
     364A      5.293743   365A      5.302470   366A      5.320444  
     367A      5.340533   368A      5.345108   369A      5.397026  
     370A      5.417479   371A      5.451183   372A      5.454129  
     373A      5.462958   374A      5.493655   375A      5.516259  
     376A      5.533713   377A      5.539120   378A      5.553974  
     379A      5.598490   380A      5.614403   381A      5.643152  
     382A      5.723566   383A      5.738811   384A      5.759521  
     385A      5.777619   386A      5.793339   387A      5.802050  
     388A      5.839221   389A      5.889842   390A      5.892337  
     391A      5.947253   392A      5.965846   393A      6.008519  
     394A      6.042999   395A      6.080342   396A      6.090877  
     397A      6.120602   398A      6.140269   399A      6.171033  
     400A      6.219247   401A      6.234258   402A      6.241757  
     403A      6.258051   404A      6.304918   405A      6.320767  
     406A      6.393244   407A      6.417847   408A      6.458916  
     409A      6.461753   410A      6.566924   411A      6.595356  
     412A      6.609313   413A      6.616694   414A      6.639103  
     415A      6.679907   416A      6.701873   417A      6.724558  
     418A      6.757698   419A      6.879559   420A      6.883887  
     421A      6.907897   422A      6.973724   423A      7.038821  
     424A      7.079338   425A      7.287252   426A      7.375347  
     427A      7.411503   428A      7.467237   429A      7.561394  
     430A      7.593582   431A      7.617775   432A      7.669848  
     433A      7.671828   434A      7.728126   435A      7.762821  
     436A      7.778275   437A      7.864335   438A      7.978693  
     439A      8.219854   440A      8.335392   441A      8.469430  
     442A      8.587036   443A      9.018938   444A      9.334218  
     445A      9.418296   446A      9.468898   447A      9.548110  
     448A     10.186278   449A     10.770859   450A     11.252898  
     451A     11.641767   452A     11.783365   453A     12.108872  
     454A     12.885260   455A     17.240528   456A     17.561790  
     457A     18.987718   458A     51.835451   459A     59.419422  
     460A     62.570495  

    Final Occupation by Irrep:
              A 
    DOCC [    12 ]

  @DF-RHF Final Energy:  -149.14310306030754

   => Energetics <=

    Nuclear Repulsion Energy =             72.1807086195537693
    One-Electron Energy =                -344.7427960371065865
    Two-Electron Energy =                 123.4189843572452503
    Total Energy =                       -149.1431030603075385

Computation Completed


Properties will be evaluated at   0.000000,   0.000000,   0.000000 [a0]

Properties computed using the SCF density matrix

  Nuclear Dipole Moment: [e a0]
     X:    77.9580      Y:    -4.1262      Z:     0.0000

  Electronic Dipole Moment: [e a0]
     X:   -77.1356      Y:     5.1184      Z:    -0.0000

  Dipole Moment: [e a0]
     X:     0.8224      Y:     0.9922      Z:    -0.0000     Total:     1.2887

  Dipole Moment: [D]
     X:     2.0902      Y:     2.5220      Z:    -0.0000     Total:     3.2756


*** tstop() called on node54.bme.utexas.edu at Mon Sep  9 22:22:20 2019
Module time:
	user time   =      46.89 seconds =       0.78 minutes
	system time =       0.83 seconds =       0.01 minutes
	total time  =         13 seconds =       0.22 minutes
Total time:
	user time   =     132.72 seconds =       2.21 minutes
	system time =       2.31 seconds =       0.04 minutes
	total time  =         36 seconds =       0.60 minutes

  //>>>>>>>>>>>>>>>>>>>>>>>>>>>>>>>>>>>//
  //            Monomer B HF           //
  //<<<<<<<<<<<<<<<<<<<<<<<<<<<<<<<<<<<//


*** tstart() called on node54.bme.utexas.edu
*** at Mon Sep  9 22:22:20 2019

   => Loading Basis Set <=

    Name: AUG-CC-PVTZ
    Role: ORBITAL
    Keyword: BASIS
    atoms 1, 8                    entry C          line   235 file /home/xy3866/psi4conda/share/psi4/basis/aug-cc-pvtz.gbs 
    atoms 2, 4, 6-7, 9, 11, 13-14 entry H          line    36 file /home/xy3866/psi4conda/share/psi4/basis/aug-cc-pvtz.gbs 
    atoms 3, 5, 10, 12            entry N          line   281 file /home/xy3866/psi4conda/share/psi4/basis/aug-cc-pvtz.gbs 


         ---------------------------------------------------------
                                   SCF
               by Justin Turney, Rob Parrish, Andy Simmonett
                          and Daniel G. A. Smith
                              RHF Reference
                        4 Threads,  30517 MiB Core
         ---------------------------------------------------------

  ==> Geometry <==

    Molecular point group: c1
    Full point group: C1

    Geometry (in Angstrom), charge = 0, multiplicity = 1:

       Center              X                  Y                   Z               Mass       
    ------------   -----------------  -----------------  -----------------  -----------------
      Gh(C)           2.102274000000    -0.199991000000     0.000000886638    12.000000000000
      Gh(H)           3.193176000000    -0.204825000000    -0.000000113362     1.007825032230
      Gh(N)           1.392910000000    -1.277334000000    -0.000000113362    14.003074004430
      Gh(H)           2.011997000000    -2.079317000000    -0.000001113362     1.007825032230
      Gh(N)           1.565838000000     1.034393000000    -0.000000113362    14.003074004430
      Gh(H)           0.551243000000     1.171695000000    -0.000000113362     1.007825032230
      Gh(H)           2.172277000000     1.829502000000    -0.000001113362     1.007825032230
         C           -2.102274000000     0.199991000000    -0.000000113362    12.000000000000
         H           -3.193176000000     0.204825000000    -0.000000113362     1.007825032230
         N           -1.392910000000     1.277334000000    -0.000000113362    14.003074004430
         H           -2.011997000000     2.079317000000    -0.000000113362     1.007825032230
         N           -1.565838000000    -1.034393000000    -0.000000113362    14.003074004430
         H           -0.551243000000    -1.171695000000    -0.000000113362     1.007825032230
         H           -2.172277000000    -1.829502000000    -0.000000113362     1.007825032230

  Running in c1 symmetry.

  Rotational constants: A =      0.18002  B =      0.06262  C =      0.04646 [cm^-1]
  Rotational constants: A =   5396.89555  B =   1877.33637  C =   1392.83273 [MHz]
  Nuclear repulsion =   72.180708619570439

  Charge       = 0
  Multiplicity = 1
  Electrons    = 24
  Nalpha       = 12
  Nbeta        = 12

  ==> Algorithm <==

  SCF Algorithm Type is DF.
  DIIS enabled.
  MOM disabled.
  Fractional occupation disabled.
  Guess Type is SAD.
  Energy threshold   = 1.00e-08
  Density threshold  = 1.00e-08
  Integral threshold = 0.00e+00

  ==> Primary Basis <==

  Basis Set: AUG-CC-PVTZ
    Blend: AUG-CC-PVTZ
    Number of shells: 156
    Number of basis function: 460
    Number of Cartesian functions: 530
    Spherical Harmonics?: true
    Max angular momentum: 3

   => Loading Basis Set <=

    Name: (AUG-CC-PVTZ AUX)
    Role: JKFIT
    Keyword: DF_BASIS_SCF
    atoms 1, 8                    entry C          line   162 file /home/xy3866/psi4conda/share/psi4/basis/aug-cc-pvtz-jkfit.gbs 
    atoms 2, 4, 6-7, 9, 11, 13-14 entry H          line    70 file /home/xy3866/psi4conda/share/psi4/basis/aug-cc-pvtz-jkfit.gbs 
    atoms 3, 5, 10, 12            entry N          line   224 file /home/xy3866/psi4conda/share/psi4/basis/aug-cc-pvtz-jkfit.gbs 

  ==> Pre-Iterations <==

   -------------------------------------------------------
    Irrep   Nso     Nmo     Nalpha   Nbeta   Ndocc  Nsocc
   -------------------------------------------------------
     A        460     460       0       0       0       0
   -------------------------------------------------------
    Total     460     460      12      12      12       0
   -------------------------------------------------------

  ==> Integral Setup <==

  ==> DiskDFJK: Density-Fitted J/K Matrices <==

    J tasked:                  Yes
    K tasked:                  Yes
    wK tasked:                  No
    OpenMP threads:              4
    Integrals threads:           4
    Memory [MiB]:            22888
    Algorithm:                Core
    Integral Cache:           LOAD
    Schwarz Cutoff:          1E-12
    Fitting Condition:       1E-10

   => Auxiliary Basis Set <=

  Basis Set: (AUG-CC-PVTZ AUX)
    Blend: AUG-CC-PVTZ-JKFIT
    Number of shells: 292
    Number of basis function: 992
    Number of Cartesian functions: 1226
    Spherical Harmonics?: true
    Max angular momentum: 4

  Minimum eigenvalue in the overlap matrix is 1.8836959222E-05.
  Using Symmetric Orthogonalization.

  SCF Guess: Superposition of Atomic Densities via on-the-fly atomic UHF.

  ==> Iterations <==

                           Total Energy        Delta E     RMS |[F,P]|

   @DF-RHF iter SAD:  -148.38772533463174   -1.48388e+02   0.00000e+00 
   @DF-RHF iter   1:  -148.99745343862173   -6.09728e-01   1.19323e-03 DIIS
   @DF-RHF iter   2:  -149.09945471493867   -1.02001e-01   7.04016e-04 DIIS
   @DF-RHF iter   3:  -149.14137592217855   -4.19212e-02   9.82751e-05 DIIS
   @DF-RHF iter   4:  -149.14279108256144   -1.41516e-03   4.86459e-05 DIIS
   @DF-RHF iter   5:  -149.14306866575046   -2.77583e-04   8.88096e-06 DIIS
   @DF-RHF iter   6:  -149.14309731835763   -2.86526e-05   4.19437e-06 DIIS
   @DF-RHF iter   7:  -149.14310202471054   -4.70635e-06   1.68832e-06 DIIS
   @DF-RHF iter   8:  -149.14310296644217   -9.41732e-07   4.98654e-07 DIIS
   @DF-RHF iter   9:  -149.14310305228096   -8.58388e-08   1.52296e-07 DIIS
   @DF-RHF iter  10:  -149.14310305985356   -7.57259e-09   3.78299e-08 DIIS
   @DF-RHF iter  11:  -149.14310306032695   -4.73392e-10   7.22534e-09 DIIS
  Energy and wave function converged.


  ==> Post-Iterations <==

    Orbital Energies [Eh]
    ---------------------

    Doubly Occupied:                                                      

       1A    -15.581654     2A    -15.519548     3A    -11.314763  
       4A     -1.259000     5A     -1.137049     6A     -0.829938  
       7A     -0.745812     8A     -0.639651     9A     -0.615822  
      10A     -0.530067    11A     -0.419651    12A     -0.359458  

    Virtual:                                                              

      13A      0.021351    14A      0.030410    15A      0.036829  
      16A      0.049894    17A      0.051467    18A      0.070229  
      19A      0.074794    20A      0.074929    21A      0.086365  
      22A      0.087453    23A      0.096935    24A      0.112828  
      25A      0.126482    26A      0.127664    27A      0.130581  
      28A      0.136286    29A      0.139042    30A      0.141968  
      31A      0.149412    32A      0.160803    33A      0.164250  
      34A      0.166904    35A      0.187499    36A      0.193914  
      37A      0.199677    38A      0.211759    39A      0.219425  
      40A      0.222674    41A      0.226906    42A      0.239500  
      43A      0.248674    44A      0.252603    45A      0.274584  
      46A      0.288832    47A      0.296140    48A      0.297381  
      49A      0.305793    50A      0.306540    51A      0.315537  
      52A      0.317866    53A      0.331957    54A      0.342630  
      55A      0.348348    56A      0.354445    57A      0.359546  
      58A      0.368374    59A      0.369614    60A      0.371824  
      61A      0.375695    62A      0.379420    63A      0.388438  
      64A      0.393571    65A      0.397483    66A      0.399116  
      67A      0.414992    68A      0.418244    69A      0.430130  
      70A      0.434602    71A      0.439855    72A      0.454813  
      73A      0.456733    74A      0.459116    75A      0.471215  
      76A      0.478528    77A      0.499830    78A      0.507048  
      79A      0.508670    80A      0.520077    81A      0.530094  
      82A      0.534982    83A      0.550292    84A      0.559937  
      85A      0.573075    86A      0.588580    87A      0.592520  
      88A      0.613819    89A      0.624701    90A      0.633451  
      91A      0.636528    92A      0.648369    93A      0.651299  
      94A      0.652914    95A      0.675305    96A      0.692179  
      97A      0.697645    98A      0.706317    99A      0.711349  
     100A      0.729936   101A      0.735760   102A      0.755415  
     103A      0.761099   104A      0.766153   105A      0.779677  
     106A      0.783996   107A      0.790884   108A      0.797341  
     109A      0.806014   110A      0.815750   111A      0.816839  
     112A      0.833413   113A      0.835216   114A      0.838578  
     115A      0.848938   116A      0.869207   117A      0.875182  
     118A      0.894410   119A      0.897339   120A      0.907545  
     121A      0.912809   122A      0.928977   123A      0.934657  
     124A      0.936344   125A      0.945781   126A      0.950046  
     127A      0.964173   128A      0.983449   129A      0.989420  
     130A      0.990461   131A      1.007671   132A      1.011423  
     133A      1.020669   134A      1.023068   135A      1.033366  
     136A      1.039943   137A      1.054216   138A      1.074017  
     139A      1.079626   140A      1.084978   141A      1.088561  
     142A      1.089333   143A      1.100694   144A      1.120238  
     145A      1.120872   146A      1.122753   147A      1.133276  
     148A      1.136676   149A      1.156120   150A      1.172203  
     151A      1.188589   152A      1.200870   153A      1.216035  
     154A      1.223787   155A      1.231139   156A      1.240197  
     157A      1.254386   158A      1.271073   159A      1.276871  
     160A      1.279651   161A      1.282337   162A      1.309474  
     163A      1.316728   164A      1.317108   165A      1.348348  
     166A      1.350688   167A      1.360431   168A      1.379266  
     169A      1.379744   170A      1.396504   171A      1.410785  
     172A      1.417552   173A      1.433191   174A      1.446663  
     175A      1.468059   176A      1.469157   177A      1.472830  
     178A      1.491732   179A      1.492520   180A      1.496870  
     181A      1.500458   182A      1.514697   183A      1.523286  
     184A      1.531975   185A      1.560060   186A      1.572968  
     187A      1.588887   188A      1.599512   189A      1.608276  
     190A      1.625805   191A      1.633976   192A      1.644840  
     193A      1.652690   194A      1.660676   195A      1.673066  
     196A      1.687910   197A      1.698568   198A      1.701731  
     199A      1.715469   200A      1.729975   201A      1.740651  
     202A      1.750095   203A      1.764212   204A      1.775229  
     205A      1.776937   206A      1.792503   207A      1.793122  
     208A      1.813123   209A      1.832187   210A      1.832778  
     211A      1.862162   212A      1.888260   213A      1.892183  
     214A      1.910415   215A      1.928940   216A      1.959722  
     217A      1.982821   218A      1.984779   219A      2.005602  
     220A      2.014443   221A      2.042216   222A      2.053924  
     223A      2.074083   224A      2.085870   225A      2.088331  
     226A      2.131756   227A      2.137969   228A      2.149652  
     229A      2.175870   230A      2.189350   231A      2.190727  
     232A      2.222182   233A      2.239020   234A      2.279204  
     235A      2.280567   236A      2.323472   237A      2.330299  
     238A      2.334844   239A      2.356997   240A      2.369745  
     241A      2.378074   242A      2.386963   243A      2.394862  
     244A      2.420011   245A      2.434182   246A      2.444244  
     247A      2.460884   248A      2.485204   249A      2.495203  
     250A      2.515938   251A      2.546042   252A      2.557138  
     253A      2.570055   254A      2.573289   255A      2.606317  
     256A      2.651101   257A      2.667194   258A      2.682303  
     259A      2.683267   260A      2.692837   261A      2.706392  
     262A      2.740782   263A      2.742867   264A      2.750735  
     265A      2.778296   266A      2.802921   267A      2.850276  
     268A      2.860746   269A      2.892764   270A      2.924795  
     271A      2.985725   272A      2.989014   273A      3.001893  
     274A      3.030350   275A      3.073883   276A      3.076846  
     277A      3.124826   278A      3.142033   279A      3.160855  
     280A      3.175559   281A      3.221941   282A      3.240277  
     283A      3.301985   284A      3.344640   285A      3.407125  
     286A      3.426224   287A      3.444801   288A      3.501182  
     289A      3.514025   290A      3.540453   291A      3.612695  
     292A      3.644682   293A      3.693949   294A      3.724281  
     295A      3.797234   296A      3.819412   297A      3.819805  
     298A      3.851864   299A      3.868660   300A      3.880004  
     301A      3.964878   302A      4.013740   303A      4.061071  
     304A      4.066639   305A      4.082115   306A      4.108720  
     307A      4.133680   308A      4.141259   309A      4.149987  
     310A      4.173420   311A      4.207105   312A      4.236027  
     313A      4.263306   314A      4.292796   315A      4.321238  
     316A      4.330967   317A      4.376493   318A      4.386766  
     319A      4.430303   320A      4.435804   321A      4.448401  
     322A      4.456024   323A      4.490774   324A      4.499010  
     325A      4.554613   326A      4.566186   327A      4.572264  
     328A      4.610908   329A      4.621581   330A      4.665054  
     331A      4.678683   332A      4.689578   333A      4.725246  
     334A      4.753284   335A      4.759144   336A      4.759539  
     337A      4.765131   338A      4.806802   339A      4.835787  
     340A      4.860880   341A      4.871644   342A      4.878817  
     343A      4.888758   344A      4.898075   345A      4.908466  
     346A      4.923017   347A      4.924497   348A      4.955295  
     349A      4.983606   350A      4.991442   351A      5.010292  
     352A      5.012780   353A      5.045574   354A      5.054350  
     355A      5.077280   356A      5.103542   357A      5.122105  
     358A      5.163299   359A      5.205899   360A      5.218440  
     361A      5.232262   362A      5.248760   363A      5.276131  
     364A      5.293743   365A      5.302470   366A      5.320444  
     367A      5.340533   368A      5.345108   369A      5.397026  
     370A      5.417479   371A      5.451183   372A      5.454129  
     373A      5.462958   374A      5.493655   375A      5.516259  
     376A      5.533713   377A      5.539120   378A      5.553974  
     379A      5.598490   380A      5.614403   381A      5.643152  
     382A      5.723566   383A      5.738811   384A      5.759521  
     385A      5.777619   386A      5.793339   387A      5.802050  
     388A      5.839221   389A      5.889842   390A      5.892337  
     391A      5.947253   392A      5.965846   393A      6.008519  
     394A      6.042999   395A      6.080342   396A      6.090877  
     397A      6.120602   398A      6.140269   399A      6.171033  
     400A      6.219247   401A      6.234258   402A      6.241757  
     403A      6.258051   404A      6.304918   405A      6.320767  
     406A      6.393244   407A      6.417847   408A      6.458916  
     409A      6.461753   410A      6.566924   411A      6.595356  
     412A      6.609313   413A      6.616694   414A      6.639103  
     415A      6.679907   416A      6.701873   417A      6.724558  
     418A      6.757698   419A      6.879559   420A      6.883887  
     421A      6.907897   422A      6.973724   423A      7.038821  
     424A      7.079338   425A      7.287252   426A      7.375347  
     427A      7.411503   428A      7.467237   429A      7.561394  
     430A      7.593582   431A      7.617775   432A      7.669848  
     433A      7.671828   434A      7.728126   435A      7.762821  
     436A      7.778275   437A      7.864335   438A      7.978693  
     439A      8.219854   440A      8.335392   441A      8.469430  
     442A      8.587036   443A      9.018938   444A      9.334218  
     445A      9.418296   446A      9.468898   447A      9.548110  
     448A     10.186278   449A     10.770859   450A     11.252898  
     451A     11.641767   452A     11.783365   453A     12.108872  
     454A     12.885260   455A     17.240528   456A     17.561790  
     457A     18.987718   458A     51.835451   459A     59.419422  
     460A     62.570495  

    Final Occupation by Irrep:
              A 
    DOCC [    12 ]

  @DF-RHF Final Energy:  -149.14310306032695

   => Energetics <=

    Nuclear Repulsion Energy =             72.1807086195704386
    One-Electron Energy =                -344.7427960371163067
    Two-Electron Energy =                 123.4189843572189034
    Total Energy =                       -149.1431030603269505

Computation Completed


Properties will be evaluated at   0.000000,   0.000000,   0.000000 [a0]

Properties computed using the SCF density matrix

  Nuclear Dipole Moment: [e a0]
     X:   -77.9580      Y:     4.1262      Z:    -0.0000

  Electronic Dipole Moment: [e a0]
     X:    77.1356      Y:    -5.1184      Z:     0.0000

  Dipole Moment: [e a0]
     X:    -0.8224      Y:    -0.9922      Z:     0.0000     Total:     1.2887

  Dipole Moment: [D]
     X:    -2.0902      Y:    -2.5220      Z:     0.0000     Total:     3.2756


*** tstop() called on node54.bme.utexas.edu at Mon Sep  9 22:22:34 2019
Module time:
	user time   =      49.33 seconds =       0.82 minutes
	system time =       0.98 seconds =       0.02 minutes
	total time  =         14 seconds =       0.23 minutes
Total time:
	user time   =     182.07 seconds =       3.03 minutes
	system time =       3.29 seconds =       0.05 minutes
	total time  =         50 seconds =       0.83 minutes
  Constructing Basis Sets for SAPT...

   => Loading Basis Set <=

    Name: (AUG-CC-PVTZ AUX)
    Role: RIFIT
    Keyword: DF_BASIS_SAPT
    atoms 1, 8                    entry C          line   148 file /home/xy3866/psi4conda/share/psi4/basis/aug-cc-pvtz-ri.gbs 
    atoms 2, 4, 6-7, 9, 11, 13-14 entry H          line    30 file /home/xy3866/psi4conda/share/psi4/basis/aug-cc-pvtz-ri.gbs 
    atoms 3, 5, 10, 12            entry N          line   206 file /home/xy3866/psi4conda/share/psi4/basis/aug-cc-pvtz-ri.gbs 


  //>>>>>>>>>>>>>>>>>>>>>>>>>>>>>>>>>>>//
  //               SAPT2+              //
  //<<<<<<<<<<<<<<<<<<<<<<<<<<<<<<<<<<<//


*** tstart() called on node54.bme.utexas.edu
*** at Mon Sep  9 22:22:34 2019

        SAPT2+  
    Ed Hohenstein
     6 June 2009

      Orbital Information
  --------------------------
    NSO        =       460
    NMO        =       460
    NRI        =      1004
    NOCC A     =        12
    NOCC B     =        12
    FOCC A     =         3
    FOCC B     =         3
    NVIR A     =       448
    NVIR B     =       448

    Estimated memory usage: 2305.7 MB

    Natural Orbital Cutoff:   1.000E-06
    Disp(T3) Truncation:            Yes
    CCD (vv|vv) Truncation:         Yes
    MBPT T2 Truncation:             Yes

    Monomer A: 247 virtual orbitals dropped
    Monomer B: 247 virtual orbitals dropped

    Elst10,r            =    -0.041662338567 [Eh]
    Exch10 (S^2)        =     0.041178180487 [Eh]
    Exch10              =     0.041819147868 [Eh]
    Ind20,r (A<-B)      =    -0.010485367155 [Eh]
    Ind20,r (B<-A)      =    -0.010485367155 [Eh]
    Ind20,r             =    -0.020970734310 [Eh]
    Exch-Ind20,r (A<-B) =     0.005599913988 [Eh]
    Exch-Ind20,r (B<-A) =     0.005599913988 [Eh]
    Exch-Ind20,r        =     0.011199827976 [Eh]
    Disp20              =    -0.015414604593 [Eh]
    Disp20 (NO)         =    -0.013441676637 [Eh]
    Exch-Disp20         =     0.003092740058 [Eh]
    Elst12,r            =     0.000030404576 [Eh]
    Exch11              =     0.000534214859 [Eh]
    Exch12              =     0.003765123183 [Eh]
    Ind22               =    -0.002197737830 [Eh]
    Disp21              =     0.001049069487 [Eh]
    Disp22 (SDQ)        =     0.000221397476 [Eh]

    (i =   1 of   9)         34 seconds
    (i =   2 of   9)         68 seconds
    (i =   3 of   9)        102 seconds
    (i =   4 of   9)        136 seconds
    (i =   5 of   9)        170 seconds
    (i =   6 of   9)        204 seconds
    (i =   7 of   9)        239 seconds
    (i =   8 of   9)        273 seconds
    (i =   9 of   9)        307 seconds

    Disp220 (T)         =    -0.001192245514 [Eh]

    (i =   1 of   9)         34 seconds
    (i =   2 of   9)         69 seconds
    (i =   3 of   9)        103 seconds
    (i =   4 of   9)        137 seconds
    (i =   5 of   9)        171 seconds
    (i =   6 of   9)        205 seconds
    (i =   7 of   9)        239 seconds
    (i =   8 of   9)        273 seconds
    (i =   9 of   9)        307 seconds

    Disp202 (T)         =    -0.001192245514 [Eh]

    Disp22 (T)          =    -0.002384491028 [Eh]

    Est. Disp220 (T)    =    -0.001367239644 [Eh]
    Est. Disp202 (T)    =    -0.001367239644 [Eh]

    Est. Disp22 (T)     =    -0.002734479287 [Eh]

    SAPT Results 
  --------------------------------------------------------------------------------------------------------
    Electrostatics                -41.63193399 [mEh]     -26.12443299 [kcal/mol]    -109.30462764 [kJ/mol]
      Elst10,r                    -41.66233857 [mEh]     -26.14351215 [kcal/mol]    -109.38445484 [kJ/mol]
      Elst12,r                      0.03040458 [mEh]       0.01907916 [kcal/mol]       0.07982720 [kJ/mol]

    Exchange                       46.11848591 [mEh]      28.93978682 [kcal/mol]     121.08406808 [kJ/mol]
      Exch10                       41.81914787 [mEh]      26.24191147 [kcal/mol]     109.79615760 [kJ/mol]
      Exch10(S^2)                  41.17818049 [mEh]      25.83969837 [kcal/mol]     108.11329797 [kJ/mol]
      Exch11(S^2)                   0.53421486 [mEh]       0.33522488 [kcal/mol]       1.40258092 [kJ/mol]
      Exch12(S^2)                   3.76512318 [mEh]       2.36265047 [kcal/mol]       9.88532956 [kJ/mol]

    Induction                     -18.13583211 [mEh]     -11.38040646 [kcal/mol]     -47.61562064 [kJ/mol]
      Ind20,r                     -20.97073431 [mEh]     -13.15933445 [kcal/mol]     -55.05865535 [kJ/mol]
      Ind22                        -2.19773783 [mEh]      -1.37910131 [kcal/mol]      -5.77015988 [kJ/mol]
      Exch-Ind20,r                 11.19982798 [mEh]       7.02799816 [kcal/mol]      29.40514430 [kJ/mol]
      Exch-Ind22                    1.17374457 [mEh]       0.73653584 [kcal/mol]       3.08166596 [kJ/mol]
      delta HF,r (2)               -7.34093252 [mEh]      -4.60650470 [kcal/mol]     -19.27361567 [kJ/mol]

    Dispersion                    -13.78587686 [mEh]      -8.65076833 [kcal/mol]     -36.19481471 [kJ/mol]
      Disp20                      -15.41460459 [mEh]      -9.67281042 [kcal/mol]     -40.47103878 [kJ/mol]
      Disp21                        1.04906949 [mEh]       0.65830104 [kcal/mol]       2.75433156 [kJ/mol]
      Disp22 (SDQ)                  0.22139748 [mEh]       0.13892901 [kcal/mol]       0.58127899 [kJ/mol]
      Disp22 (T)                   -2.38449103 [mEh]      -1.49629071 [kcal/mol]      -6.26048033 [kJ/mol]
      Est. Disp22 (T)              -2.73447929 [mEh]      -1.71591166 [kcal/mol]      -7.17937438 [kJ/mol]
      Exch-Disp20                   3.09274006 [mEh]       1.94072369 [kcal/mol]       8.11998790 [kJ/mol]

  Total HF                        -16.95502955 [mEh]     -10.63944167 [kcal/mol]     -44.51542395 [kJ/mol]
  Total SAPT0                     -29.27689409 [mEh]     -18.37152840 [kcal/mol]     -76.86647483 [kJ/mol]
  Total SAPT2                     -25.97114472 [mEh]     -16.29713936 [kcal/mol]     -68.18723108 [kJ/mol]
  Total SAPT2+                    -27.43515705 [mEh]     -17.21582096 [kcal/mol]     -72.03099490 [kJ/mol]

  Special recipe for scaled SAPT0 (see Manual):
    Electrostatics sSAPT0         -41.66233857 [mEh]     -26.14351215 [kcal/mol]    -109.38445484 [kJ/mol]
    Exchange sSAPT0                41.81914787 [mEh]      26.24191147 [kcal/mol]     109.79615760 [kJ/mol]
    Induction sSAPT0              -16.58065612 [mEh]     -10.40451880 [kcal/mol]     -43.53250665 [kJ/mol]
    Dispersion sSAPT0             -12.17518281 [mEh]      -7.64004256 [kcal/mol]     -31.96593806 [kJ/mol]
  Total sSAPT0                    -28.59902963 [mEh]     -17.94616203 [kcal/mol]     -75.08674195 [kJ/mol]
  --------------------------------------------------------------------------------------------------------

*** tstop() called on node54.bme.utexas.edu at Mon Sep  9 22:37:23 2019
Module time:
	user time   =    3405.59 seconds =      56.76 minutes
	system time =      60.90 seconds =       1.02 minutes
	total time  =        889 seconds =      14.82 minutes
Total time:
	user time   =    3587.96 seconds =      59.80 minutes
	system time =      64.19 seconds =       1.07 minutes
	total time  =        939 seconds =      15.65 minutes

    Psi4 stopped on: Monday, 09 September 2019 10:37PM
    Psi4 wall time for execution: 0:15:39.64

*** Psi4 exiting successfully. Buy a developer a beer!
