
    -----------------------------------------------------------------------
          Psi4: An Open-Source Ab Initio Electronic Structure Package
                               Psi4 1.3.2 release

                         Git: Rev {HEAD} ecbda83 


    R. M. Parrish, L. A. Burns, D. G. A. Smith, A. C. Simmonett,
    A. E. DePrince III, E. G. Hohenstein, U. Bozkaya, A. Yu. Sokolov,
    R. Di Remigio, R. M. Richard, J. F. Gonthier, A. M. James,
    H. R. McAlexander, A. Kumar, M. Saitow, X. Wang, B. P. Pritchard,
    P. Verma, H. F. Schaefer III, K. Patkowski, R. A. King, E. F. Valeev,
    F. A. Evangelista, J. M. Turney, T. D. Crawford, and C. D. Sherrill,
    J. Chem. Theory Comput. 13(7) pp 3185--3197 (2017).
    (doi: 10.1021/acs.jctc.7b00174)


                         Additional Contributions by
    P. Kraus, H. Kruse, M. H. Lechner, M. C. Schieber, R. A. Shaw,
    A. Alenaizan, R. Galvelis, Z. L. Glick, S. Lehtola, and J. P. Misiewicz

    -----------------------------------------------------------------------


    Psi4 started on: Monday, 09 September 2019 07:22PM

    Process ID: 57517
    Host:       node54.bme.utexas.edu
    PSIDATADIR: /home/xy3866/psi4conda/share/psi4
    Memory:     500.0 MiB
    Threads:    4
    
  ==> Input File <==

--------------------------------------------------------------------------
#psi4
#
memory 32 gb

molecule  {
0 1
  C        1.9047060    -0.1798760     0.0000010
  H        2.9930900    -0.2590830    -0.0000010
  O        1.1798480    -1.1602640     0.0000000
  O        1.5170880     1.0770050     0.0000000
  H        0.5236580     1.1098660     0.0000010
--
0 1
  C       -1.9047290     0.1798580    -0.0000010
  H       -2.9931190     0.2590000     0.0000000
  O       -1.1799300     1.1602900     0.0000000
  O       -1.5170290    -1.0769970     0.0000000
  H       -0.5235830    -1.1097970     0.0000010
units angstrom
no_reorient  #important for SAPT in psi4, default
symmetry c1  #important for SAPT in psi4, default
}

set {
basis aug-cc-pVTZ
scf_type DF
freeze_core True
}
energy('sapt2+')
--------------------------------------------------------------------------

  Memory set to  29.802 GiB by Python driver.

  //>>>>>>>>>>>>>>>>>>>>>>>>>>>>>>>>>>>//
  //              Dimer HF             //
  //<<<<<<<<<<<<<<<<<<<<<<<<<<<<<<<<<<<//


*** tstart() called on node54.bme.utexas.edu
*** at Mon Sep  9 19:22:44 2019

   => Loading Basis Set <=

    Name: AUG-CC-PVTZ
    Role: ORBITAL
    Keyword: BASIS
    atoms 1, 6        entry C          line   235 file /home/xy3866/psi4conda/share/psi4/basis/aug-cc-pvtz.gbs 
    atoms 2, 5, 7, 10 entry H          line    36 file /home/xy3866/psi4conda/share/psi4/basis/aug-cc-pvtz.gbs 
    atoms 3-4, 8-9    entry O          line   327 file /home/xy3866/psi4conda/share/psi4/basis/aug-cc-pvtz.gbs 


         ---------------------------------------------------------
                                   SCF
               by Justin Turney, Rob Parrish, Andy Simmonett
                          and Daniel G. A. Smith
                              RHF Reference
                        4 Threads,  30517 MiB Core
         ---------------------------------------------------------

  ==> Geometry <==

    Molecular point group: c1
    Full point group: C1

    Geometry (in Angstrom), charge = 0, multiplicity = 1:

       Center              X                  Y                   Z               Mass       
    ------------   -----------------  -----------------  -----------------  -----------------
         C            1.904712494043    -0.179879409567     0.000000989047    12.000000000000
         H            2.993096494043    -0.259086409567    -0.000001010953     1.007825032230
         O            1.179854494043    -1.160267409567    -0.000000010953    15.994914619570
         O            1.517094494043     1.077001590433    -0.000000010953    15.994914619570
         H            0.523664494043     1.109862590433     0.000000989047     1.007825032230
         C           -1.904722505957     0.179854590433    -0.000001010953    12.000000000000
         H           -2.993112505957     0.258996590433    -0.000000010953     1.007825032230
         O           -1.179923505957     1.160286590433    -0.000000010953    15.994914619570
         O           -1.517022505957    -1.077000409567    -0.000000010953    15.994914619570
         H           -0.523576505957    -1.109800409567     0.000000989047     1.007825032230

  Running in c1 symmetry.

  Rotational constants: A =      0.20173  B =      0.07531  C =      0.05484 [cm^-1]
  Rotational constants: A =   6047.63636  B =   2257.78018  C =   1644.01550 [MHz]
  Nuclear repulsion =  235.095521755544240

  Charge       = 0
  Multiplicity = 1
  Electrons    = 48
  Nalpha       = 24
  Nbeta        = 24

  ==> Algorithm <==

  SCF Algorithm Type is DF.
  DIIS enabled.
  MOM disabled.
  Fractional occupation disabled.
  Guess Type is SAD.
  Energy threshold   = 1.00e-08
  Density threshold  = 1.00e-08
  Integral threshold = 0.00e+00

  ==> Primary Basis <==

  Basis Set: AUG-CC-PVTZ
    Blend: AUG-CC-PVTZ
    Number of shells: 120
    Number of basis function: 368
    Number of Cartesian functions: 430
    Spherical Harmonics?: true
    Max angular momentum: 3

   => Loading Basis Set <=

    Name: (AUG-CC-PVTZ AUX)
    Role: JKFIT
    Keyword: DF_BASIS_SCF
    atoms 1, 6        entry C          line   162 file /home/xy3866/psi4conda/share/psi4/basis/aug-cc-pvtz-jkfit.gbs 
    atoms 2, 5, 7, 10 entry H          line    70 file /home/xy3866/psi4conda/share/psi4/basis/aug-cc-pvtz-jkfit.gbs 
    atoms 3-4, 8-9    entry O          line   286 file /home/xy3866/psi4conda/share/psi4/basis/aug-cc-pvtz-jkfit.gbs 

  ==> Pre-Iterations <==

   -------------------------------------------------------
    Irrep   Nso     Nmo     Nalpha   Nbeta   Ndocc  Nsocc
   -------------------------------------------------------
     A        368     368       0       0       0       0
   -------------------------------------------------------
    Total     368     368      24      24      24       0
   -------------------------------------------------------

  ==> Integral Setup <==

  ==> DiskDFJK: Density-Fitted J/K Matrices <==

    J tasked:                  Yes
    K tasked:                  Yes
    wK tasked:                  No
    OpenMP threads:              4
    Integrals threads:           4
    Memory [MiB]:            22888
    Algorithm:                Core
    Integral Cache:           SAVE
    Schwarz Cutoff:          1E-12
    Fitting Condition:       1E-10

   => Auxiliary Basis Set <=

  Basis Set: (AUG-CC-PVTZ AUX)
    Blend: AUG-CC-PVTZ-JKFIT
    Number of shells: 236
    Number of basis function: 808
    Number of Cartesian functions: 1006
    Spherical Harmonics?: true
    Max angular momentum: 4

  Minimum eigenvalue in the overlap matrix is 3.4252330659E-05.
  Using Symmetric Orthogonalization.

  SCF Guess: Superposition of Atomic Densities via on-the-fly atomic UHF.

  ==> Iterations <==

                           Total Energy        Delta E     RMS |[F,P]|

   @DF-RHF iter SAD:  -376.28699165027513   -3.76287e+02   0.00000e+00 
   @DF-RHF iter   1:  -377.52938141847790   -1.24239e+00   1.87912e-03 DIIS
   @DF-RHF iter   2:  -377.64351090312266   -1.14129e-01   1.20828e-03 DIIS
   @DF-RHF iter   3:  -377.70482457942501   -6.13137e-02   1.41767e-04 DIIS
   @DF-RHF iter   4:  -377.70660797492610   -1.78340e-03   6.88468e-05 DIIS
   @DF-RHF iter   5:  -377.70691837946191   -3.10405e-04   1.82706e-05 DIIS
   @DF-RHF iter   6:  -377.70697485338252   -5.64739e-05   8.26614e-06 DIIS
   @DF-RHF iter   7:  -377.70698757851090   -1.27251e-05   2.60690e-06 DIIS
   @DF-RHF iter   8:  -377.70698904107991   -1.46257e-06   7.89730e-07 DIIS
   @DF-RHF iter   9:  -377.70698917024936   -1.29169e-07   2.44022e-07 DIIS
   @DF-RHF iter  10:  -377.70698918124538   -1.09960e-08   6.60475e-08 DIIS
   @DF-RHF iter  11:  -377.70698918194159   -6.96218e-10   1.21768e-08 DIIS
   @DF-RHF iter  12:  -377.70698918196365   -2.20552e-11   2.48632e-09 DIIS
  Energy and wave function converged.


  ==> Post-Iterations <==

    Orbital Energies [Eh]
    ---------------------

    Doubly Occupied:                                                      

       1A    -20.618634     2A    -20.618619     3A    -20.577206  
       4A    -20.577195     5A    -11.408025     6A    -11.408014  
       7A     -1.486623     8A     -1.474703     9A     -1.388333  
      10A     -1.375333    11A     -0.918970    12A     -0.885344  
      13A     -0.767237    14A     -0.734231    15A     -0.725957  
      16A     -0.697279    17A     -0.646244    18A     -0.636414  
      19A     -0.621986    20A     -0.583186    21A     -0.507618  
      22A     -0.498658    23A     -0.496690    24A     -0.475999  

    Virtual:                                                              

      25A      0.029677    26A      0.033693    27A      0.054803  
      28A      0.056866    29A      0.066587    30A      0.082462  
      31A      0.088782    32A      0.113574    33A      0.120982  
      34A      0.128124    35A      0.128350    36A      0.132667  
      37A      0.133593    38A      0.153357    39A      0.164331  
      40A      0.171288    41A      0.189769    42A      0.196214  
      43A      0.206887    44A      0.217194    45A      0.230559  
      46A      0.231581    47A      0.238694    48A      0.250316  
      49A      0.263831    50A      0.272903    51A      0.284966  
      52A      0.286289    53A      0.293166    54A      0.304836  
      55A      0.307520    56A      0.308518    57A      0.327602  
      58A      0.328467    59A      0.333684    60A      0.354429  
      61A      0.368310    62A      0.369725    63A      0.410922  
      64A      0.415328    65A      0.416794    66A      0.425892  
      67A      0.426717    68A      0.450656    69A      0.460084  
      70A      0.465270    71A      0.487765    72A      0.495122  
      73A      0.501917    74A      0.511744    75A      0.521691  
      76A      0.533123    77A      0.535713    78A      0.550145  
      79A      0.570751    80A      0.576049    81A      0.577244  
      82A      0.600032    83A      0.613135    84A      0.670288  
      85A      0.676339    86A      0.678712    87A      0.699735  
      88A      0.709228    89A      0.727419    90A      0.737930  
      91A      0.747027    92A      0.749709    93A      0.757304  
      94A      0.766688    95A      0.804770    96A      0.810442  
      97A      0.811069    98A      0.815597    99A      0.826120  
     100A      0.832154   101A      0.854273   102A      0.868083  
     103A      0.881224   104A      0.899848   105A      0.908989  
     106A      0.920180   107A      0.930374   108A      0.943124  
     109A      0.953092   110A      0.955117   111A      0.957865  
     112A      0.963491   113A      0.968365   114A      0.973361  
     115A      0.994148   116A      1.001603   117A      1.022371  
     118A      1.032633   119A      1.045061   120A      1.052760  
     121A      1.054726   122A      1.061150   123A      1.082406  
     124A      1.084059   125A      1.096649   126A      1.111562  
     127A      1.132154   128A      1.153511   129A      1.181646  
     130A      1.194406   131A      1.207829   132A      1.233514  
     133A      1.250280   134A      1.250586   135A      1.273483  
     136A      1.286221   137A      1.288749   138A      1.335972  
     139A      1.344597   140A      1.359702   141A      1.377353  
     142A      1.382990   143A      1.388261   144A      1.430109  
     145A      1.432477   146A      1.446211   147A      1.494995  
     148A      1.505540   149A      1.515258   150A      1.540826  
     151A      1.543282   152A      1.569174   153A      1.575812  
     154A      1.581442   155A      1.593392   156A      1.598385  
     157A      1.601098   158A      1.606894   159A      1.660374  
     160A      1.686550   161A      1.702385   162A      1.703428  
     163A      1.726177   164A      1.726575   165A      1.726884  
     166A      1.770488   167A      1.770745   168A      1.802570  
     169A      1.814897   170A      1.888790   171A      1.900236  
     172A      1.917181   173A      1.985622   174A      2.025312  
     175A      2.028381   176A      2.039282   177A      2.079326  
     178A      2.085584   179A      2.140042   180A      2.153984  
     181A      2.183251   182A      2.191705   183A      2.279185  
     184A      2.314029   185A      2.337720   186A      2.343226  
     187A      2.353812   188A      2.376977   189A      2.413940  
     190A      2.420525   191A      2.458366   192A      2.460226  
     193A      2.490335   194A      2.515043   195A      2.527173  
     196A      2.529526   197A      2.538919   198A      2.551825  
     199A      2.557151   200A      2.576942   201A      2.600758  
     202A      2.601785   203A      2.611301   204A      2.616600  
     205A      2.622625   206A      2.668355   207A      2.669429  
     208A      2.684047   209A      2.693728   210A      2.727701  
     211A      2.734476   212A      2.771399   213A      2.774135  
     214A      2.800585   215A      2.818663   216A      2.841376  
     217A      2.885412   218A      2.904470   219A      2.914910  
     220A      2.940238   221A      2.945046   222A      2.972103  
     223A      2.999943   224A      3.015737   225A      3.059650  
     226A      3.061922   227A      3.154404   228A      3.154527  
     229A      3.181646   230A      3.191885   231A      3.209930  
     232A      3.256797   233A      3.296003   234A      3.305506  
     235A      3.315114   236A      3.395768   237A      3.415580  
     238A      3.416756   239A      3.454889   240A      3.486284  
     241A      3.494865   242A      3.596275   243A      3.598047  
     244A      3.621453   245A      3.676509   246A      3.686854  
     247A      3.711867   248A      3.791048   249A      3.792420  
     250A      3.818348   251A      3.906446   252A      3.937075  
     253A      3.975765   254A      4.037267   255A      4.038357  
     256A      4.049907   257A      4.072475   258A      4.155756  
     259A      4.155869   260A      4.157974   261A      4.218359  
     262A      4.226200   263A      4.227253   264A      4.237129  
     265A      4.251756   266A      4.277314   267A      4.330389  
     268A      4.345549   269A      4.362564   270A      4.415127  
     271A      4.415705   272A      4.419013   273A      4.467106  
     274A      4.485856   275A      4.495861   276A      4.581695  
     277A      4.686656   278A      4.695772   279A      4.763262  
     280A      4.768296   281A      4.782344   282A      4.807423  
     283A      4.863530   284A      4.893346   285A      4.916185  
     286A      4.926530   287A      4.958959   288A      5.063107  
     289A      5.082459   290A      5.144700   291A      5.161963  
     292A      5.181990   293A      5.203034   294A      5.207009  
     295A      5.281544   296A      5.351282   297A      5.400201  
     298A      5.428447   299A      5.439485   300A      5.447303  
     301A      5.537020   302A      5.574715   303A      5.639469  
     304A      5.714687   305A      5.753186   306A      5.769095  
     307A      6.024300   308A      6.106737   309A      6.305099  
     310A      6.333430   311A      6.365926   312A      6.431887  
     313A      6.603342   314A      6.637358   315A      6.729488  
     316A      6.755216   317A      6.776498   318A      6.821320  
     319A      6.839830   320A      6.864165   321A      6.889287  
     322A      6.892681   323A      6.909550   324A      6.928782  
     325A      7.003850   326A      7.041051   327A      7.125636  
     328A      7.127219   329A      7.146298   330A      7.155066  
     331A      7.227510   332A      7.232871   333A      7.244357  
     334A      7.274139   335A      7.312895   336A      7.313850  
     337A      7.337573   338A      7.378846   339A      7.381419  
     340A      7.399548   341A      7.457321   342A      7.474919  
     343A      7.504739   344A      7.510398   345A      7.566687  
     346A      7.583438   347A      7.604729   348A      7.701964  
     349A      7.708025   350A      7.726606   351A      7.830570  
     352A      7.854679   353A      7.866956   354A      7.938114  
     355A      7.997245   356A      8.081949   357A      8.167877  
     358A      8.171478   359A      8.289309   360A      8.314091  
     361A      8.779587   362A      8.794263   363A     15.178279  
     364A     15.465388   365A     16.294905   366A     16.327598  
     367A     18.023652   368A     18.208541  

    Final Occupation by Irrep:
              A 
    DOCC [    24 ]

  @DF-RHF Final Energy:  -377.70698918196365

   => Energetics <=

    Nuclear Repulsion Energy =            235.0955217555442402
    One-Electron Energy =                -985.3480252840652156
    Two-Electron Energy =                 372.5455143465572974
    Total Energy =                       -377.7069891819636496

Computation Completed


Properties will be evaluated at   0.000000,   0.000000,   0.000000 [a0]

Properties computed using the SCF density matrix

  Nuclear Dipole Moment: [e a0]
     X:     0.0001      Y:    -0.0000      Z:     0.0000

  Electronic Dipole Moment: [e a0]
     X:     0.0001      Y:     0.0000      Z:     0.0000

  Dipole Moment: [e a0]
     X:     0.0002      Y:    -0.0000      Z:     0.0000     Total:     0.0002

  Dipole Moment: [D]
     X:     0.0004      Y:    -0.0001      Z:     0.0000     Total:     0.0004


*** tstop() called on node54.bme.utexas.edu at Mon Sep  9 19:22:56 2019
Module time:
	user time   =      41.84 seconds =       0.70 minutes
	system time =       0.94 seconds =       0.02 minutes
	total time  =         12 seconds =       0.20 minutes
Total time:
	user time   =      41.84 seconds =       0.70 minutes
	system time =       0.94 seconds =       0.02 minutes
	total time  =         12 seconds =       0.20 minutes

  //>>>>>>>>>>>>>>>>>>>>>>>>>>>>>>>>>>>//
  //            Monomer A HF           //
  //<<<<<<<<<<<<<<<<<<<<<<<<<<<<<<<<<<<//


*** tstart() called on node54.bme.utexas.edu
*** at Mon Sep  9 19:22:56 2019

   => Loading Basis Set <=

    Name: AUG-CC-PVTZ
    Role: ORBITAL
    Keyword: BASIS
    atoms 1, 6        entry C          line   235 file /home/xy3866/psi4conda/share/psi4/basis/aug-cc-pvtz.gbs 
    atoms 2, 5, 7, 10 entry H          line    36 file /home/xy3866/psi4conda/share/psi4/basis/aug-cc-pvtz.gbs 
    atoms 3-4, 8-9    entry O          line   327 file /home/xy3866/psi4conda/share/psi4/basis/aug-cc-pvtz.gbs 


         ---------------------------------------------------------
                                   SCF
               by Justin Turney, Rob Parrish, Andy Simmonett
                          and Daniel G. A. Smith
                              RHF Reference
                        4 Threads,  30517 MiB Core
         ---------------------------------------------------------

  ==> Geometry <==

    Molecular point group: c1
    Full point group: C1

    Geometry (in Angstrom), charge = 0, multiplicity = 1:

       Center              X                  Y                   Z               Mass       
    ------------   -----------------  -----------------  -----------------  -----------------
         C            1.904712494043    -0.179879409567     0.000000989047    12.000000000000
         H            2.993096494043    -0.259086409567    -0.000001010953     1.007825032230
         O            1.179854494043    -1.160267409567    -0.000000010953    15.994914619570
         O            1.517094494043     1.077001590433    -0.000000010953    15.994914619570
         H            0.523664494043     1.109862590433     0.000000989047     1.007825032230
      Gh(C)          -1.904722505957     0.179854590433    -0.000001010953    12.000000000000
      Gh(H)          -2.993112505957     0.258996590433    -0.000000010953     1.007825032230
      Gh(O)          -1.179923505957     1.160286590433    -0.000000010953    15.994914619570
      Gh(O)          -1.517022505957    -1.077000409567    -0.000000010953    15.994914619570
      Gh(H)          -0.523576505957    -1.109800409567     0.000000989047     1.007825032230

  Running in c1 symmetry.

  Rotational constants: A =      0.20173  B =      0.07531  C =      0.05484 [cm^-1]
  Rotational constants: A =   6047.63636  B =   2257.78018  C =   1644.01550 [MHz]
  Nuclear repulsion =   70.158093840579681

  Charge       = 0
  Multiplicity = 1
  Electrons    = 24
  Nalpha       = 12
  Nbeta        = 12

  ==> Algorithm <==

  SCF Algorithm Type is DF.
  DIIS enabled.
  MOM disabled.
  Fractional occupation disabled.
  Guess Type is SAD.
  Energy threshold   = 1.00e-08
  Density threshold  = 1.00e-08
  Integral threshold = 0.00e+00

  ==> Primary Basis <==

  Basis Set: AUG-CC-PVTZ
    Blend: AUG-CC-PVTZ
    Number of shells: 120
    Number of basis function: 368
    Number of Cartesian functions: 430
    Spherical Harmonics?: true
    Max angular momentum: 3

   => Loading Basis Set <=

    Name: (AUG-CC-PVTZ AUX)
    Role: JKFIT
    Keyword: DF_BASIS_SCF
    atoms 1, 6        entry C          line   162 file /home/xy3866/psi4conda/share/psi4/basis/aug-cc-pvtz-jkfit.gbs 
    atoms 2, 5, 7, 10 entry H          line    70 file /home/xy3866/psi4conda/share/psi4/basis/aug-cc-pvtz-jkfit.gbs 
    atoms 3-4, 8-9    entry O          line   286 file /home/xy3866/psi4conda/share/psi4/basis/aug-cc-pvtz-jkfit.gbs 

  ==> Pre-Iterations <==

   -------------------------------------------------------
    Irrep   Nso     Nmo     Nalpha   Nbeta   Ndocc  Nsocc
   -------------------------------------------------------
     A        368     368       0       0       0       0
   -------------------------------------------------------
    Total     368     368      12      12      12       0
   -------------------------------------------------------

  ==> Integral Setup <==

  ==> DiskDFJK: Density-Fitted J/K Matrices <==

    J tasked:                  Yes
    K tasked:                  Yes
    wK tasked:                  No
    OpenMP threads:              4
    Integrals threads:           4
    Memory [MiB]:            22888
    Algorithm:                Core
    Integral Cache:           LOAD
    Schwarz Cutoff:          1E-12
    Fitting Condition:       1E-10

   => Auxiliary Basis Set <=

  Basis Set: (AUG-CC-PVTZ AUX)
    Blend: AUG-CC-PVTZ-JKFIT
    Number of shells: 236
    Number of basis function: 808
    Number of Cartesian functions: 1006
    Spherical Harmonics?: true
    Max angular momentum: 4

  Minimum eigenvalue in the overlap matrix is 3.4252330659E-05.
  Using Symmetric Orthogonalization.

  SCF Guess: Superposition of Atomic Densities via on-the-fly atomic UHF.

  ==> Iterations <==

                           Total Energy        Delta E     RMS |[F,P]|

   @DF-RHF iter SAD:  -187.99673738141226   -1.87997e+02   0.00000e+00 
   @DF-RHF iter   1:  -188.73468436778211   -7.37947e-01   1.41965e-03 DIIS
   @DF-RHF iter   2:  -188.79677850428908   -6.20941e-02   1.00852e-03 DIIS
   @DF-RHF iter   3:  -188.84002464063332   -4.32461e-02   1.20070e-04 DIIS
   @DF-RHF iter   4:  -188.84114698929588   -1.12235e-03   6.33636e-05 DIIS
   @DF-RHF iter   5:  -188.84142803330093   -2.81044e-04   1.49845e-05 DIIS
   @DF-RHF iter   6:  -188.84146826398282   -4.02307e-05   6.51395e-06 DIIS
   @DF-RHF iter   7:  -188.84147726092490   -8.99694e-06   2.35182e-06 DIIS
   @DF-RHF iter   8:  -188.84147831897741   -1.05805e-06   7.30549e-07 DIIS
   @DF-RHF iter   9:  -188.84147842278853   -1.03811e-07   2.12395e-07 DIIS
   @DF-RHF iter  10:  -188.84147843132416   -8.53564e-09   4.75507e-08 DIIS
   @DF-RHF iter  11:  -188.84147843169225   -3.68090e-10   8.11256e-09 DIIS
  Energy and wave function converged.


  ==> Post-Iterations <==

    Orbital Energies [Eh]
    ---------------------

    Doubly Occupied:                                                      

       1A    -20.638346     2A    -20.561663     3A    -11.396522  
       4A     -1.482735     5A     -1.369384     6A     -0.901974  
       7A     -0.731350     8A     -0.712070     9A     -0.644348  
      10A     -0.597451    11A     -0.491028    12A     -0.470916  

    Virtual:                                                              

      13A      0.021787    14A      0.033392    15A      0.045815  
      16A      0.057898    17A      0.064910    18A      0.082437  
      19A      0.085101    20A      0.089412    21A      0.113658  
      22A      0.122039    23A      0.130293    24A      0.135338  
      25A      0.143615    26A      0.145907    27A      0.150000  
      28A      0.174898    29A      0.186186    30A      0.192835  
      31A      0.204269    32A      0.205545    33A      0.220227  
      34A      0.231881    35A      0.233154    36A      0.242639  
      37A      0.251664    38A      0.268234    39A      0.277213  
      40A      0.284868    41A      0.290893    42A      0.310159  
      43A      0.314829    44A      0.318492    45A      0.321914  
      46A      0.337337    47A      0.344372    48A      0.355073  
      49A      0.373604    50A      0.376378    51A      0.390977  
      52A      0.411435    53A      0.413044    54A      0.422591  
      55A      0.429630    56A      0.437912    57A      0.467443  
      58A      0.470857    59A      0.480984    60A      0.482599  
      61A      0.487229    62A      0.518743    63A      0.526313  
      64A      0.544027    65A      0.545660    66A      0.553024  
      67A      0.571035    68A      0.577243    69A      0.602972  
      70A      0.610274    71A      0.646912    72A      0.670658  
      73A      0.679721    74A      0.688372    75A      0.698384  
      76A      0.726654    77A      0.727334    78A      0.735086  
      79A      0.762391    80A      0.774515    81A      0.794442  
      82A      0.811353    83A      0.823389    84A      0.826541  
      85A      0.836781    86A      0.857884    87A      0.866963  
      88A      0.868225    89A      0.889281    90A      0.889352  
      91A      0.917866    92A      0.918222    93A      0.924007  
      94A      0.933054    95A      0.951193    96A      0.957578  
      97A      0.961264    98A      0.974596    99A      0.976827  
     100A      0.984194   101A      0.996100   102A      0.997299  
     103A      1.001519   104A      1.006464   105A      1.014550  
     106A      1.027377   107A      1.043562   108A      1.046003  
     109A      1.068954   110A      1.081678   111A      1.106701  
     112A      1.110264   113A      1.112862   114A      1.121059  
     115A      1.146005   116A      1.162058   117A      1.181571  
     118A      1.192816   119A      1.202292   120A      1.228511  
     121A      1.254847   122A      1.267811   123A      1.273069  
     124A      1.313496   125A      1.334734   126A      1.342381  
     127A      1.352590   128A      1.356461   129A      1.401257  
     130A      1.412429   131A      1.445438   132A      1.451607  
     133A      1.475291   134A      1.495126   135A      1.522793  
     136A      1.525800   137A      1.531072   138A      1.569584  
     139A      1.595298   140A      1.624640   141A      1.629756  
     142A      1.657969   143A      1.664632   144A      1.672265  
     145A      1.684638   146A      1.699347   147A      1.717467  
     148A      1.719336   149A      1.748113   150A      1.775197  
     151A      1.817190   152A      1.821192   153A      1.838733  
     154A      1.858978   155A      1.862563   156A      1.882685  
     157A      1.901698   158A      1.930890   159A      1.937003  
     160A      1.966962   161A      2.000577   162A      2.009836  
     163A      2.019143   164A      2.063245   165A      2.077906  
     166A      2.088903   167A      2.129427   168A      2.161219  
     169A      2.177778   170A      2.249574   171A      2.258670  
     172A      2.322416   173A      2.362276   174A      2.387249  
     175A      2.390468   176A      2.417984   177A      2.448472  
     178A      2.454833   179A      2.479942   180A      2.496526  
     181A      2.513855   182A      2.543885   183A      2.572268  
     184A      2.579861   185A      2.584169   186A      2.612174  
     187A      2.621083   188A      2.630904   189A      2.652787  
     190A      2.678518   191A      2.680372   192A      2.711843  
     193A      2.718257   194A      2.739079   195A      2.752267  
     196A      2.769585   197A      2.793168   198A      2.804303  
     199A      2.831278   200A      2.838450   201A      2.848959  
     202A      2.862913   203A      2.892781   204A      2.899960  
     205A      2.925147   206A      2.951245   207A      2.961483  
     208A      2.992829   209A      3.001394   210A      3.043449  
     211A      3.085636   212A      3.112633   213A      3.175090  
     214A      3.177215   215A      3.205143   216A      3.210169  
     217A      3.242882   218A      3.270715   219A      3.284202  
     220A      3.386360   221A      3.392299   222A      3.429798  
     223A      3.434484   224A      3.509260   225A      3.531710  
     226A      3.532377   227A      3.543484   228A      3.578427  
     229A      3.618899   230A      3.647321   231A      3.659179  
     232A      3.666529   233A      3.733317   234A      3.813985  
     235A      3.817668   236A      3.856408   237A      3.875790  
     238A      3.921422   239A      4.001721   240A      4.009124  
     241A      4.037682   242A      4.062113   243A      4.083036  
     244A      4.134809   245A      4.136361   246A      4.159448  
     247A      4.195915   248A      4.216115   249A      4.232445  
     250A      4.255592   251A      4.286838   252A      4.356020  
     253A      4.415710   254A      4.419961   255A      4.449587  
     256A      4.535372   257A      4.551757   258A      4.611935  
     259A      4.655455   260A      4.727657   261A      4.754918  
     262A      4.759141   263A      4.762744   264A      4.813740  
     265A      4.859461   266A      4.888194   267A      4.906309  
     268A      4.946939   269A      4.983528   270A      5.038260  
     271A      5.063063   272A      5.067274   273A      5.111460  
     274A      5.147884   275A      5.187567   276A      5.200854  
     277A      5.201703   278A      5.294501   279A      5.306316  
     280A      5.375148   281A      5.380099   282A      5.412812  
     283A      5.435225   284A      5.503408   285A      5.517327  
     286A      5.581644   287A      5.659498   288A      5.664729  
     289A      5.726143   290A      5.762866   291A      5.881555  
     292A      5.981396   293A      6.017569   294A      6.194731  
     295A      6.329171   296A      6.385287   297A      6.422115  
     298A      6.538289   299A      6.617609   300A      6.727453  
     301A      6.771918   302A      6.802562   303A      6.811787  
     304A      6.874886   305A      6.933790   306A      6.942981  
     307A      7.063093   308A      7.081725   309A      7.163591  
     310A      7.172166   311A      7.203068   312A      7.208661  
     313A      7.260481   314A      7.275070   315A      7.361035  
     316A      7.407672   317A      7.433812   318A      7.485451  
     319A      7.497556   320A      7.568245   321A      7.640305  
     322A      7.684732   323A      7.731308   324A      7.751091  
     325A      7.826895   326A      7.831616   327A      7.865876  
     328A      7.889529   329A      7.972045   330A      8.008570  
     331A      8.068889   332A      8.077478   333A      8.084440  
     334A      8.166073   335A      8.182136   336A      8.294590  
     337A      8.319383   338A      8.383862   339A      8.479641  
     340A      8.588278   341A      8.770497   342A      8.902194  
     343A      9.250845   344A      9.707753   345A      9.813053  
     346A      9.855683   347A      9.973996   348A      9.984362  
     349A     10.056998   350A     10.349217   351A     10.391252  
     352A     10.480703   353A     10.941489   354A     11.158530  
     355A     11.827143   356A     11.861888   357A     12.056987  
     358A     12.507225   359A     12.936185   360A     13.466160  
     361A     13.998204   362A     14.392602   363A     15.401478  
     364A     16.302583   365A     18.109992   366A     51.106118  
     367A     64.722422   368A     68.019691  

    Final Occupation by Irrep:
              A 
    DOCC [    12 ]

  @DF-RHF Final Energy:  -188.84147843169225

   => Energetics <=

    Nuclear Repulsion Energy =             70.1580938405796815
    One-Electron Energy =                -398.0035738618158234
    Two-Electron Energy =                 139.0040015895438898
    Total Energy =                       -188.8414784316922521

Computation Completed


Properties will be evaluated at   0.000000,   0.000000,   0.000000 [a0]

Properties computed using the SCF density matrix

  Nuclear Dipole Moment: [e a0]
     X:    69.0140      Y:    -1.6906      Z:     0.0000

  Electronic Dipole Moment: [e a0]
     X:   -68.8185      Y:     2.4767      Z:    -0.0000

  Dipole Moment: [e a0]
     X:     0.1955      Y:     0.7861      Z:     0.0000     Total:     0.8100

  Dipole Moment: [D]
     X:     0.4969      Y:     1.9979      Z:     0.0000     Total:     2.0588


*** tstop() called on node54.bme.utexas.edu at Mon Sep  9 19:23:02 2019
Module time:
	user time   =      22.34 seconds =       0.37 minutes
	system time =       0.52 seconds =       0.01 minutes
	total time  =          6 seconds =       0.10 minutes
Total time:
	user time   =      64.20 seconds =       1.07 minutes
	system time =       1.46 seconds =       0.02 minutes
	total time  =         18 seconds =       0.30 minutes

  //>>>>>>>>>>>>>>>>>>>>>>>>>>>>>>>>>>>//
  //            Monomer B HF           //
  //<<<<<<<<<<<<<<<<<<<<<<<<<<<<<<<<<<<//


*** tstart() called on node54.bme.utexas.edu
*** at Mon Sep  9 19:23:02 2019

   => Loading Basis Set <=

    Name: AUG-CC-PVTZ
    Role: ORBITAL
    Keyword: BASIS
    atoms 1, 6        entry C          line   235 file /home/xy3866/psi4conda/share/psi4/basis/aug-cc-pvtz.gbs 
    atoms 2, 5, 7, 10 entry H          line    36 file /home/xy3866/psi4conda/share/psi4/basis/aug-cc-pvtz.gbs 
    atoms 3-4, 8-9    entry O          line   327 file /home/xy3866/psi4conda/share/psi4/basis/aug-cc-pvtz.gbs 


         ---------------------------------------------------------
                                   SCF
               by Justin Turney, Rob Parrish, Andy Simmonett
                          and Daniel G. A. Smith
                              RHF Reference
                        4 Threads,  30517 MiB Core
         ---------------------------------------------------------

  ==> Geometry <==

    Molecular point group: c1
    Full point group: C1

    Geometry (in Angstrom), charge = 0, multiplicity = 1:

       Center              X                  Y                   Z               Mass       
    ------------   -----------------  -----------------  -----------------  -----------------
      Gh(C)           1.904712494043    -0.179879409567     0.000000989047    12.000000000000
      Gh(H)           2.993096494043    -0.259086409567    -0.000001010953     1.007825032230
      Gh(O)           1.179854494043    -1.160267409567    -0.000000010953    15.994914619570
      Gh(O)           1.517094494043     1.077001590433    -0.000000010953    15.994914619570
      Gh(H)           0.523664494043     1.109862590433     0.000000989047     1.007825032230
         C           -1.904722505957     0.179854590433    -0.000001010953    12.000000000000
         H           -2.993112505957     0.258996590433    -0.000000010953     1.007825032230
         O           -1.179923505957     1.160286590433    -0.000000010953    15.994914619570
         O           -1.517022505957    -1.077000409567    -0.000000010953    15.994914619570
         H           -0.523576505957    -1.109800409567     0.000000989047     1.007825032230

  Running in c1 symmetry.

  Rotational constants: A =      0.20173  B =      0.07531  C =      0.05484 [cm^-1]
  Rotational constants: A =   6047.63636  B =   2257.78018  C =   1644.01550 [MHz]
  Nuclear repulsion =   70.158037218475897

  Charge       = 0
  Multiplicity = 1
  Electrons    = 24
  Nalpha       = 12
  Nbeta        = 12

  ==> Algorithm <==

  SCF Algorithm Type is DF.
  DIIS enabled.
  MOM disabled.
  Fractional occupation disabled.
  Guess Type is SAD.
  Energy threshold   = 1.00e-08
  Density threshold  = 1.00e-08
  Integral threshold = 0.00e+00

  ==> Primary Basis <==

  Basis Set: AUG-CC-PVTZ
    Blend: AUG-CC-PVTZ
    Number of shells: 120
    Number of basis function: 368
    Number of Cartesian functions: 430
    Spherical Harmonics?: true
    Max angular momentum: 3

   => Loading Basis Set <=

    Name: (AUG-CC-PVTZ AUX)
    Role: JKFIT
    Keyword: DF_BASIS_SCF
    atoms 1, 6        entry C          line   162 file /home/xy3866/psi4conda/share/psi4/basis/aug-cc-pvtz-jkfit.gbs 
    atoms 2, 5, 7, 10 entry H          line    70 file /home/xy3866/psi4conda/share/psi4/basis/aug-cc-pvtz-jkfit.gbs 
    atoms 3-4, 8-9    entry O          line   286 file /home/xy3866/psi4conda/share/psi4/basis/aug-cc-pvtz-jkfit.gbs 

  ==> Pre-Iterations <==

   -------------------------------------------------------
    Irrep   Nso     Nmo     Nalpha   Nbeta   Ndocc  Nsocc
   -------------------------------------------------------
     A        368     368       0       0       0       0
   -------------------------------------------------------
    Total     368     368      12      12      12       0
   -------------------------------------------------------

  ==> Integral Setup <==

  ==> DiskDFJK: Density-Fitted J/K Matrices <==

    J tasked:                  Yes
    K tasked:                  Yes
    wK tasked:                  No
    OpenMP threads:              4
    Integrals threads:           4
    Memory [MiB]:            22888
    Algorithm:                Core
    Integral Cache:           LOAD
    Schwarz Cutoff:          1E-12
    Fitting Condition:       1E-10

   => Auxiliary Basis Set <=

  Basis Set: (AUG-CC-PVTZ AUX)
    Blend: AUG-CC-PVTZ-JKFIT
    Number of shells: 236
    Number of basis function: 808
    Number of Cartesian functions: 1006
    Spherical Harmonics?: true
    Max angular momentum: 4

  Minimum eigenvalue in the overlap matrix is 3.4252330659E-05.
  Using Symmetric Orthogonalization.

  SCF Guess: Superposition of Atomic Densities via on-the-fly atomic UHF.

  ==> Iterations <==

                           Total Energy        Delta E     RMS |[F,P]|

   @DF-RHF iter SAD:  -187.99672792453964   -1.87997e+02   0.00000e+00 
   @DF-RHF iter   1:  -188.73468268704590   -7.37955e-01   1.41965e-03 DIIS
   @DF-RHF iter   2:  -188.79677712484676   -6.20944e-02   1.00852e-03 DIIS
   @DF-RHF iter   3:  -188.84002344793259   -4.32463e-02   1.20070e-04 DIIS
   @DF-RHF iter   4:  -188.84114581009260   -1.12236e-03   6.33640e-05 DIIS
   @DF-RHF iter   5:  -188.84142685963369   -2.81050e-04   1.49847e-05 DIIS
   @DF-RHF iter   6:  -188.84146709167766   -4.02320e-05   6.51404e-06 DIIS
   @DF-RHF iter   7:  -188.84147608889981   -8.99722e-06   2.35186e-06 DIIS
   @DF-RHF iter   8:  -188.84147714698204   -1.05808e-06   7.30564e-07 DIIS
   @DF-RHF iter   9:  -188.84147725079751   -1.03815e-07   2.12399e-07 DIIS
   @DF-RHF iter  10:  -188.84147725933357   -8.53606e-09   4.75514e-08 DIIS
   @DF-RHF iter  11:  -188.84147725970132   -3.67748e-10   8.11272e-09 DIIS
  Energy and wave function converged.


  ==> Post-Iterations <==

    Orbital Energies [Eh]
    ---------------------

    Doubly Occupied:                                                      

       1A    -20.638346     2A    -20.561662     3A    -11.396521  
       4A     -1.482733     5A     -1.369382     6A     -0.901971  
       7A     -0.731349     8A     -0.712068     9A     -0.644347  
      10A     -0.597449    11A     -0.491027    12A     -0.470915  

    Virtual:                                                              

      13A      0.021787    14A      0.033392    15A      0.045816  
      16A      0.057897    17A      0.064909    18A      0.082437  
      19A      0.085100    20A      0.089410    21A      0.113657  
      22A      0.122038    23A      0.130294    24A      0.135338  
      25A      0.143615    26A      0.145908    27A      0.150000  
      28A      0.174896    29A      0.186186    30A      0.192834  
      31A      0.204271    32A      0.205543    33A      0.220228  
      34A      0.231880    35A      0.233152    36A      0.242640  
      37A      0.251663    38A      0.268233    39A      0.277212  
      40A      0.284867    41A      0.290894    42A      0.310159  
      43A      0.314834    44A      0.318491    45A      0.321913  
      46A      0.337337    47A      0.344373    48A      0.355076  
      49A      0.373607    50A      0.376375    51A      0.390975  
      52A      0.411431    53A      0.413042    54A      0.422589  
      55A      0.429626    56A      0.437911    57A      0.467445  
      58A      0.470852    59A      0.480985    60A      0.482600  
      61A      0.487229    62A      0.518741    63A      0.526312  
      64A      0.544027    65A      0.545661    66A      0.553029  
      67A      0.571036    68A      0.577240    69A      0.602977  
      70A      0.610268    71A      0.646908    72A      0.670654  
      73A      0.679720    74A      0.688375    75A      0.698380  
      76A      0.726655    77A      0.727339    78A      0.735091  
      79A      0.762392    80A      0.774507    81A      0.794440  
      82A      0.811349    83A      0.823389    84A      0.826549  
      85A      0.836781    86A      0.857884    87A      0.866965  
      88A      0.868218    89A      0.889280    90A      0.889353  
      91A      0.917859    92A      0.918220    93A      0.923999  
      94A      0.933054    95A      0.951197    96A      0.957576  
      97A      0.961265    98A      0.974591    99A      0.976830  
     100A      0.984197   101A      0.996102   102A      0.997303  
     103A      1.001520   104A      1.006470   105A      1.014544  
     106A      1.027377   107A      1.043563   108A      1.045997  
     109A      1.068955   110A      1.081675   111A      1.106695  
     112A      1.110255   113A      1.112861   114A      1.121064  
     115A      1.146004   116A      1.162054   117A      1.181566  
     118A      1.192817   119A      1.202280   120A      1.228522  
     121A      1.254848   122A      1.267809   123A      1.273072  
     124A      1.313503   125A      1.334744   126A      1.342385  
     127A      1.352602   128A      1.356455   129A      1.401249  
     130A      1.412431   131A      1.445445   132A      1.451611  
     133A      1.475270   134A      1.495118   135A      1.522792  
     136A      1.525804   137A      1.531072   138A      1.569594  
     139A      1.595304   140A      1.624638   141A      1.629734  
     142A      1.657960   143A      1.664637   144A      1.672259  
     145A      1.684626   146A      1.699336   147A      1.717486  
     148A      1.719342   149A      1.748105   150A      1.775205  
     151A      1.817187   152A      1.821197   153A      1.838715  
     154A      1.858972   155A      1.862557   156A      1.882691  
     157A      1.901688   158A      1.930890   159A      1.937005  
     160A      1.966957   161A      2.000581   162A      2.009826  
     163A      2.019099   164A      2.063235   165A      2.077891  
     166A      2.088928   167A      2.129432   168A      2.161214  
     169A      2.177797   170A      2.249562   171A      2.258670  
     172A      2.322423   173A      2.362285   174A      2.387245  
     175A      2.390458   176A      2.417974   177A      2.448483  
     178A      2.454838   179A      2.479939   180A      2.496537  
     181A      2.513848   182A      2.543881   183A      2.572260  
     184A      2.579858   185A      2.584163   186A      2.612165  
     187A      2.621094   188A      2.630898   189A      2.652789  
     190A      2.678533   191A      2.680359   192A      2.711847  
     193A      2.718249   194A      2.739064   195A      2.752287  
     196A      2.769557   197A      2.793163   198A      2.804297  
     199A      2.831283   200A      2.838443   201A      2.848976  
     202A      2.862901   203A      2.892813   204A      2.899990  
     205A      2.925133   206A      2.951237   207A      2.961485  
     208A      2.992842   209A      3.001389   210A      3.043410  
     211A      3.085650   212A      3.112622   213A      3.175085  
     214A      3.177227   215A      3.205120   216A      3.210169  
     217A      3.242904   218A      3.270725   219A      3.284190  
     220A      3.386356   221A      3.392287   222A      3.429794  
     223A      3.434496   224A      3.509280   225A      3.531669  
     226A      3.532369   227A      3.543480   228A      3.578425  
     229A      3.618876   230A      3.647391   231A      3.659171  
     232A      3.666527   233A      3.733303   234A      3.813982  
     235A      3.817629   236A      3.856414   237A      3.875796  
     238A      3.921415   239A      4.001714   240A      4.009131  
     241A      4.037685   242A      4.062063   243A      4.083041  
     244A      4.134800   245A      4.136347   246A      4.159447  
     247A      4.195906   248A      4.216107   249A      4.232450  
     250A      4.255588   251A      4.286838   252A      4.356004  
     253A      4.415705   254A      4.419939   255A      4.449613  
     256A      4.535366   257A      4.551750   258A      4.611950  
     259A      4.655441   260A      4.727651   261A      4.754924  
     262A      4.759159   263A      4.762744   264A      4.813728  
     265A      4.859437   266A      4.888210   267A      4.906299  
     268A      4.946950   269A      4.983532   270A      5.038255  
     271A      5.063039   272A      5.067284   273A      5.111456  
     274A      5.147886   275A      5.187567   276A      5.200854  
     277A      5.201704   278A      5.294500   279A      5.306309  
     280A      5.375189   281A      5.380062   282A      5.412824  
     283A      5.435212   284A      5.503417   285A      5.517322  
     286A      5.581652   287A      5.659509   288A      5.664717  
     289A      5.726118   290A      5.762889   291A      5.881558  
     292A      5.981400   293A      6.017528   294A      6.194756  
     295A      6.329178   296A      6.385186   297A      6.422121  
     298A      6.538292   299A      6.617608   300A      6.727454  
     301A      6.771912   302A      6.802561   303A      6.811796  
     304A      6.874895   305A      6.933793   306A      6.942953  
     307A      7.063183   308A      7.081697   309A      7.163582  
     310A      7.172163   311A      7.203086   312A      7.208655  
     313A      7.260483   314A      7.275059   315A      7.361042  
     316A      7.407668   317A      7.433804   318A      7.485487  
     319A      7.497550   320A      7.568251   321A      7.640312  
     322A      7.684688   323A      7.731321   324A      7.751094  
     325A      7.826889   326A      7.831607   327A      7.865851  
     328A      7.889509   329A      7.972063   330A      8.008555  
     331A      8.068842   332A      8.077485   333A      8.084468  
     334A      8.166023   335A      8.182139   336A      8.294544  
     337A      8.319354   338A      8.383814   339A      8.479707  
     340A      8.588190   341A      8.770548   342A      8.902187  
     343A      9.250875   344A      9.707765   345A      9.813052  
     346A      9.855686   347A      9.974000   348A      9.984356  
     349A     10.057000   350A     10.349194   351A     10.391284  
     352A     10.480830   353A     10.941508   354A     11.158526  
     355A     11.827136   356A     11.861866   357A     12.057040  
     358A     12.507227   359A     12.936215   360A     13.466180  
     361A     13.998198   362A     14.392595   363A     15.401324  
     364A     16.302522   365A     18.109917   366A     51.106169  
     367A     64.722801   368A     68.019853  

    Final Occupation by Irrep:
              A 
    DOCC [    12 ]

  @DF-RHF Final Energy:  -188.84147725970132

   => Energetics <=

    Nuclear Repulsion Energy =             70.1580372184758971
    One-Electron Energy =                -398.0034844903722160
    Two-Electron Energy =                 139.0039700121949977
    Total Energy =                       -188.8414772597013211

Computation Completed


Properties will be evaluated at   0.000000,   0.000000,   0.000000 [a0]

Properties computed using the SCF density matrix

  Nuclear Dipole Moment: [e a0]
     X:   -69.0139      Y:     1.6906      Z:    -0.0000

  Electronic Dipole Moment: [e a0]
     X:    68.8185      Y:    -2.4766      Z:     0.0000

  Dipole Moment: [e a0]
     X:    -0.1955      Y:    -0.7861      Z:    -0.0000     Total:     0.8100

  Dipole Moment: [D]
     X:    -0.4968      Y:    -1.9980      Z:    -0.0000     Total:     2.0588


*** tstop() called on node54.bme.utexas.edu at Mon Sep  9 19:23:09 2019
Module time:
	user time   =      22.79 seconds =       0.38 minutes
	system time =       0.47 seconds =       0.01 minutes
	total time  =          7 seconds =       0.12 minutes
Total time:
	user time   =      87.01 seconds =       1.45 minutes
	system time =       1.93 seconds =       0.03 minutes
	total time  =         25 seconds =       0.42 minutes
  Constructing Basis Sets for SAPT...

   => Loading Basis Set <=

    Name: (AUG-CC-PVTZ AUX)
    Role: RIFIT
    Keyword: DF_BASIS_SAPT
    atoms 1, 6        entry C          line   148 file /home/xy3866/psi4conda/share/psi4/basis/aug-cc-pvtz-ri.gbs 
    atoms 2, 5, 7, 10 entry H          line    30 file /home/xy3866/psi4conda/share/psi4/basis/aug-cc-pvtz-ri.gbs 
    atoms 3-4, 8-9    entry O          line   264 file /home/xy3866/psi4conda/share/psi4/basis/aug-cc-pvtz-ri.gbs 


  //>>>>>>>>>>>>>>>>>>>>>>>>>>>>>>>>>>>//
  //               SAPT2+              //
  //<<<<<<<<<<<<<<<<<<<<<<<<<<<<<<<<<<<//


*** tstart() called on node54.bme.utexas.edu
*** at Mon Sep  9 19:23:09 2019

        SAPT2+  
    Ed Hohenstein
     6 June 2009

      Orbital Information
  --------------------------
    NSO        =       368
    NMO        =       368
    NRI        =       820
    NOCC A     =        12
    NOCC B     =        12
    FOCC A     =         3
    FOCC B     =         3
    NVIR A     =       356
    NVIR B     =       356

    Estimated memory usage: 1269.4 MB

    Natural Orbital Cutoff:   1.000E-06
    Disp(T3) Truncation:            Yes
    CCD (vv|vv) Truncation:         Yes
    MBPT T2 Truncation:             Yes

    Monomer A: 190 virtual orbitals dropped
    Monomer B: 190 virtual orbitals dropped

    Elst10,r            =    -0.050003796146 [Eh]
    Exch10 (S^2)        =     0.050023539841 [Eh]
    Exch10              =     0.050859186554 [Eh]
    Ind20,r (A<-B)      =    -0.014936762951 [Eh]
    Ind20,r (B<-A)      =    -0.014934677527 [Eh]
    Ind20,r             =    -0.029871440478 [Eh]
    Exch-Ind20,r (A<-B) =     0.007793759996 [Eh]
    Exch-Ind20,r (B<-A) =     0.007794055006 [Eh]
    Exch-Ind20,r        =     0.015587815002 [Eh]
    Disp20              =    -0.016195641317 [Eh]
    Disp20 (NO)         =    -0.014189204099 [Eh]
    Exch-Disp20         =     0.003233854511 [Eh]
    Elst12,r            =     0.002191669008 [Eh]
    Exch11              =     0.000249197742 [Eh]
    Exch12              =     0.007558018820 [Eh]
    Ind22               =    -0.004383392040 [Eh]
    Disp21              =     0.001341279860 [Eh]
    Disp22 (SDQ)        =    -0.000596954610 [Eh]

    (i =   1 of   9)         13 seconds
    (i =   2 of   9)         26 seconds
    (i =   3 of   9)         39 seconds
    (i =   4 of   9)         52 seconds
    (i =   5 of   9)         65 seconds
    (i =   6 of   9)         78 seconds
    (i =   7 of   9)         91 seconds
    (i =   8 of   9)        105 seconds
    (i =   9 of   9)        118 seconds

    Disp220 (T)         =    -0.001375647237 [Eh]

    (i =   1 of   9)         14 seconds
    (i =   2 of   9)         28 seconds
    (i =   3 of   9)         42 seconds
    (i =   4 of   9)         55 seconds
    (i =   5 of   9)         69 seconds
    (i =   6 of   9)         83 seconds
    (i =   7 of   9)         97 seconds
    (i =   8 of   9)        111 seconds
    (i =   9 of   9)        125 seconds

    Disp202 (T)         =    -0.001375662329 [Eh]

    Disp22 (T)          =    -0.002751309566 [Eh]

    Est. Disp220 (T)    =    -0.001570171877 [Eh]
    Est. Disp202 (T)    =    -0.001570189103 [Eh]

    Est. Disp22 (T)     =    -0.003140360980 [Eh]

    SAPT Results 
  --------------------------------------------------------------------------------------------------------
    Electrostatics                -47.81212714 [mEh]     -30.00256274 [kcal/mol]    -125.53072251 [kJ/mol]
      Elst10,r                    -50.00379615 [mEh]     -31.37785581 [kcal/mol]    -131.28494869 [kJ/mol]
      Elst12,r                      2.19166901 [mEh]       1.37529307 [kcal/mol]       5.75422619 [kJ/mol]

    Exchange                       58.66640312 [mEh]      36.81372375 [kcal/mol]     154.02862016 [kJ/mol]
      Exch10                       50.85918655 [mEh]      31.91462139 [kcal/mol]     133.53077590 [kJ/mol]
      Exch10(S^2)                  50.02353984 [mEh]      31.39024516 [kcal/mol]     131.33678576 [kJ/mol]
      Exch11(S^2)                   0.24919774 [mEh]       0.15637394 [kcal/mol]       0.65426858 [kJ/mol]
      Exch12(S^2)                   7.55801882 [mEh]       4.74272841 [kcal/mol]      19.84357568 [kJ/mol]

    Induction                     -26.98488737 [mEh]     -16.93327247 [kcal/mol]     -70.84881203 [kJ/mol]
      Ind20,r                     -29.87144048 [mEh]     -18.74461190 [kcal/mol]     -78.42745617 [kJ/mol]
      Ind22                        -4.38339204 [mEh]      -2.75062003 [kcal/mol]     -11.50859422 [kJ/mol]
      Exch-Ind20,r                 15.58781500 [mEh]       9.78150159 [kcal/mol]      40.92580265 [kJ/mol]
      Exch-Ind22                    2.28738565 [mEh]       1.43535616 [kcal/mol]       6.00553019 [kJ/mol]
      delta HF,r (2)              -10.60525550 [mEh]      -6.65489830 [kcal/mol]     -27.84409448 [kJ/mol]

    Dispersion                    -15.35782254 [mEh]      -9.63717914 [kcal/mol]     -40.32195751 [kJ/mol]
      Disp20                      -16.19564132 [mEh]     -10.16291836 [kcal/mol]     -42.52165042 [kJ/mol]
      Disp21                        1.34127986 [mEh]       0.84166582 [kcal/mol]       3.52152979 [kJ/mol]
      Disp22 (SDQ)                 -0.59695461 [mEh]      -0.37459467 [kcal/mol]      -1.56730411 [kJ/mol]
      Disp22 (T)                   -2.75130957 [mEh]      -1.72647282 [kcal/mol]      -7.22356227 [kJ/mol]
      Est. Disp22 (T)              -3.14036098 [mEh]      -1.97060627 [kcal/mol]      -8.24501662 [kJ/mol]
      Exch-Disp20                   3.23385451 [mEh]       2.02927434 [kcal/mol]       8.49048385 [kJ/mol]

  Total HF                        -24.03349057 [mEh]     -15.08124302 [kcal/mol]     -63.09992080 [kJ/mol]
  Total SAPT0                     -36.99527738 [mEh]     -23.21488704 [kcal/mol]     -97.13108737 [kJ/mol]
  Total SAPT2                     -29.09239820 [mEh]     -18.25575549 [kcal/mol]     -76.38208095 [kJ/mol]
  Total SAPT2+                    -31.48843393 [mEh]     -19.75929060 [kcal/mol]     -82.67287189 [kJ/mol]

  Special recipe for scaled SAPT0 (see Manual):
    Electrostatics sSAPT0         -50.00379615 [mEh]     -31.37785581 [kcal/mol]    -131.28494869 [kJ/mol]
    Exchange sSAPT0                50.85918655 [mEh]      31.91462139 [kcal/mol]     133.53077590 [kJ/mol]
    Induction sSAPT0              -24.09457193 [mEh]     -15.11957216 [kcal/mol]     -63.26028990 [kJ/mol]
    Dispersion sSAPT0             -12.79699913 [mEh]      -8.03023819 [kcal/mol]     -33.59851658 [kJ/mol]
  Total sSAPT0                    -36.03618065 [mEh]     -22.61304476 [kcal/mol]     -94.61297927 [kJ/mol]
  --------------------------------------------------------------------------------------------------------

*** tstop() called on node54.bme.utexas.edu at Mon Sep  9 19:29:24 2019
Module time:
	user time   =    1431.58 seconds =      23.86 minutes
	system time =      29.05 seconds =       0.48 minutes
	total time  =        375 seconds =       6.25 minutes
Total time:
	user time   =    1518.97 seconds =      25.32 minutes
	system time =      30.99 seconds =       0.52 minutes
	total time  =        400 seconds =       6.67 minutes

    Psi4 stopped on: Monday, 09 September 2019 07:29PM
    Psi4 wall time for execution: 0:06:39.40

*** Psi4 exiting successfully. Buy a developer a beer!
