
    -----------------------------------------------------------------------
          Psi4: An Open-Source Ab Initio Electronic Structure Package
                               Psi4 1.3.2 release

                         Git: Rev {HEAD} ecbda83 


    R. M. Parrish, L. A. Burns, D. G. A. Smith, A. C. Simmonett,
    A. E. DePrince III, E. G. Hohenstein, U. Bozkaya, A. Yu. Sokolov,
    R. Di Remigio, R. M. Richard, J. F. Gonthier, A. M. James,
    H. R. McAlexander, A. Kumar, M. Saitow, X. Wang, B. P. Pritchard,
    P. Verma, H. F. Schaefer III, K. Patkowski, R. A. King, E. F. Valeev,
    F. A. Evangelista, J. M. Turney, T. D. Crawford, and C. D. Sherrill,
    J. Chem. Theory Comput. 13(7) pp 3185--3197 (2017).
    (doi: 10.1021/acs.jctc.7b00174)


                         Additional Contributions by
    P. Kraus, H. Kruse, M. H. Lechner, M. C. Schieber, R. A. Shaw,
    A. Alenaizan, R. Galvelis, Z. L. Glick, S. Lehtola, and J. P. Misiewicz

    -----------------------------------------------------------------------


    Psi4 started on: Monday, 09 September 2019 04:47PM

    Process ID: 49836
    Host:       node54.bme.utexas.edu
    PSIDATADIR: /home/xy3866/psi4conda/share/psi4
    Memory:     500.0 MiB
    Threads:    4
    
  ==> Input File <==

--------------------------------------------------------------------------
#psi4
#
memory 32 gb

molecule  {
0 1
  C       -2.0482690     0.2828850     0.0000130
  H       -3.1457830     0.3491130    -0.0000080
  O       -1.3512910     1.2933720    -0.0000010
  N       -1.5923150    -0.9782630     0.0000040
  H       -0.5837530    -1.1752650     0.0000030
  H       -2.2528990    -1.7321960    -0.0000070
--
0 1
  C        1.9165145    -0.2393647     0.0000040
  H        3.0064265    -0.2656327     0.0000000
  N        1.1846085    -1.3010237     0.0000020
  H        1.7843735    -2.1173428    -0.0000040
  N        1.4043395     1.0055772     0.0000000
  H        0.3976995     1.1555533    -0.0000010
  H        2.0202265     1.7931303    -0.0000050
units angstrom
no_reorient  #important for SAPT in psi4, default
symmetry c1  #important for SAPT in psi4, default
}

set {
basis aug-cc-pVTZ
scf_type DF
freeze_core True
}
energy('sapt2+')
--------------------------------------------------------------------------

  Memory set to  29.802 GiB by Python driver.

  //>>>>>>>>>>>>>>>>>>>>>>>>>>>>>>>>>>>//
  //              Dimer HF             //
  //<<<<<<<<<<<<<<<<<<<<<<<<<<<<<<<<<<<//


*** tstart() called on node54.bme.utexas.edu
*** at Mon Sep  9 16:47:38 2019

   => Loading Basis Set <=

    Name: AUG-CC-PVTZ
    Role: ORBITAL
    Keyword: BASIS
    atoms 1, 7                 entry C          line   235 file /home/xy3866/psi4conda/share/psi4/basis/aug-cc-pvtz.gbs 
    atoms 2, 5-6, 8, 10, 12-13 entry H          line    36 file /home/xy3866/psi4conda/share/psi4/basis/aug-cc-pvtz.gbs 
    atoms 3                    entry O          line   327 file /home/xy3866/psi4conda/share/psi4/basis/aug-cc-pvtz.gbs 
    atoms 4, 9, 11             entry N          line   281 file /home/xy3866/psi4conda/share/psi4/basis/aug-cc-pvtz.gbs 


         ---------------------------------------------------------
                                   SCF
               by Justin Turney, Rob Parrish, Andy Simmonett
                          and Daniel G. A. Smith
                              RHF Reference
                        4 Threads,  30517 MiB Core
         ---------------------------------------------------------

  ==> Geometry <==

    Molecular point group: c1
    Full point group: C1

    Geometry (in Angstrom), charge = 0, multiplicity = 1:

       Center              X                  Y                   Z               Mass       
    ------------   -----------------  -----------------  -----------------  -----------------
         C           -1.958406844901     0.267552030814     0.000010194538    12.000000000000
         H           -3.055920844901     0.333780030814    -0.000010805462     1.007825032230
         O           -1.261428844901     1.278039030814    -0.000003805462    15.994914619570
         N           -1.502452844901    -0.993595969186     0.000001194538    14.003074004430
         H           -0.493890844901    -1.190597969186     0.000000194538     1.007825032230
         H           -2.163036844901    -1.747528969186    -0.000009805462     1.007825032230
         C            2.006376655099    -0.254697669186     0.000001194538    12.000000000000
         H            3.096288655099    -0.280965669186    -0.000002805462     1.007825032230
         N            1.274470655099    -1.316356669186    -0.000000805462    14.003074004430
         H            1.874235655099    -2.132675769186    -0.000006805462     1.007825032230
         N            1.494201655099     0.990244230814    -0.000002805462    14.003074004430
         H            0.487561655099     1.140220330814    -0.000003805462     1.007825032230
         H            2.110088655099     1.777797330814    -0.000007805462     1.007825032230

  Running in c1 symmetry.

  Rotational constants: A =      0.18459  B =      0.07032  C =      0.05092 [cm^-1]
  Rotational constants: A =   5533.88151  B =   2108.03690  C =   1526.53114 [MHz]
  Nuclear repulsion =  232.788808679125594

  Charge       = 0
  Multiplicity = 1
  Electrons    = 48
  Nalpha       = 24
  Nbeta        = 24

  ==> Algorithm <==

  SCF Algorithm Type is DF.
  DIIS enabled.
  MOM disabled.
  Fractional occupation disabled.
  Guess Type is SAD.
  Energy threshold   = 1.00e-08
  Density threshold  = 1.00e-08
  Integral threshold = 0.00e+00

  ==> Primary Basis <==

  Basis Set: AUG-CC-PVTZ
    Blend: AUG-CC-PVTZ
    Number of shells: 147
    Number of basis function: 437
    Number of Cartesian functions: 505
    Spherical Harmonics?: true
    Max angular momentum: 3

   => Loading Basis Set <=

    Name: (AUG-CC-PVTZ AUX)
    Role: JKFIT
    Keyword: DF_BASIS_SCF
    atoms 1, 7                 entry C          line   162 file /home/xy3866/psi4conda/share/psi4/basis/aug-cc-pvtz-jkfit.gbs 
    atoms 2, 5-6, 8, 10, 12-13 entry H          line    70 file /home/xy3866/psi4conda/share/psi4/basis/aug-cc-pvtz-jkfit.gbs 
    atoms 3                    entry O          line   286 file /home/xy3866/psi4conda/share/psi4/basis/aug-cc-pvtz-jkfit.gbs 
    atoms 4, 9, 11             entry N          line   224 file /home/xy3866/psi4conda/share/psi4/basis/aug-cc-pvtz-jkfit.gbs 

  ==> Pre-Iterations <==

   -------------------------------------------------------
    Irrep   Nso     Nmo     Nalpha   Nbeta   Ndocc  Nsocc
   -------------------------------------------------------
     A        437     437       0       0       0       0
   -------------------------------------------------------
    Total     437     437      24      24      24       0
   -------------------------------------------------------

  ==> Integral Setup <==

  ==> DiskDFJK: Density-Fitted J/K Matrices <==

    J tasked:                  Yes
    K tasked:                  Yes
    wK tasked:                  No
    OpenMP threads:              4
    Integrals threads:           4
    Memory [MiB]:            22888
    Algorithm:                Core
    Integral Cache:           SAVE
    Schwarz Cutoff:          1E-12
    Fitting Condition:       1E-10

   => Auxiliary Basis Set <=

  Basis Set: (AUG-CC-PVTZ AUX)
    Blend: AUG-CC-PVTZ-JKFIT
    Number of shells: 278
    Number of basis function: 946
    Number of Cartesian functions: 1171
    Spherical Harmonics?: true
    Max angular momentum: 4

  Minimum eigenvalue in the overlap matrix is 2.4202277550E-05.
  Using Symmetric Orthogonalization.

  SCF Guess: Superposition of Atomic Densities via on-the-fly atomic UHF.

  ==> Iterations <==

                           Total Energy        Delta E     RMS |[F,P]|

   @DF-RHF iter SAD:  -316.90759879846308   -3.16908e+02   0.00000e+00 
   @DF-RHF iter   1:  -317.92552822309273   -1.01793e+00   1.66967e-03 DIIS
   @DF-RHF iter   2:  -318.09386167488861   -1.68333e-01   9.73195e-04 DIIS
   @DF-RHF iter   3:  -318.15899256142279   -6.51309e-02   1.46917e-04 DIIS
   @DF-RHF iter   4:  -318.16136697635540   -2.37441e-03   6.76756e-05 DIIS
   @DF-RHF iter   5:  -318.16181406786671   -4.47092e-04   1.34463e-05 DIIS
   @DF-RHF iter   6:  -318.16185795534199   -4.38875e-05   6.36426e-06 DIIS
   @DF-RHF iter   7:  -318.16186744765059   -9.49231e-06   2.60029e-06 DIIS
   @DF-RHF iter   8:  -318.16186948835764   -2.04071e-06   9.83534e-07 DIIS
   @DF-RHF iter   9:  -318.16186974695091   -2.58593e-07   4.08437e-07 DIIS
   @DF-RHF iter  10:  -318.16186978782025   -4.08693e-08   1.30680e-07 DIIS
   @DF-RHF iter  11:  -318.16186979202814   -4.20789e-09   4.01657e-08 DIIS
   @DF-RHF iter  12:  -318.16186979244276   -4.14616e-10   9.79453e-09 DIIS
  Energy and wave function converged.


  ==> Post-Iterations <==

    Orbital Energies [Eh]
    ---------------------

    Doubly Occupied:                                                      

       1A    -20.521247     2A    -15.565009     3A    -15.558287  
       4A    -15.523117     5A    -11.347661     6A    -11.319441  
       7A     -1.376406     8A     -1.254032     9A     -1.202741  
      10A     -1.138028    11A     -0.846548    12A     -0.816853  
      13A     -0.744337    14A     -0.730037    15A     -0.687970  
      16A     -0.624436    17A     -0.611243    18A     -0.596523  
      19A     -0.562352    20A     -0.523039    21A     -0.451297  
      22A     -0.415156    23A     -0.406640    24A     -0.358955  

    Virtual:                                                              

      25A      0.027018    26A      0.031722    27A      0.039271  
      28A      0.050361    29A      0.055942    30A      0.073928  
      31A      0.078962    32A      0.086132    33A      0.090008  
      34A      0.106970    35A      0.122169    36A      0.128335  
      37A      0.134055    38A      0.135093    39A      0.139357  
      40A      0.146159    41A      0.149734    42A      0.155949  
      43A      0.164162    44A      0.173433    45A      0.176783  
      46A      0.192780    47A      0.201346    48A      0.206650  
      49A      0.211443    50A      0.217480    51A      0.249872  
      52A      0.253027    53A      0.256137    54A      0.264248  
      55A      0.275509    56A      0.281489    57A      0.289743  
      58A      0.299974    59A      0.302174    60A      0.311927  
      61A      0.321341    62A      0.324576    63A      0.328883  
      64A      0.330723    65A      0.342701    66A      0.352694  
      67A      0.364663    68A      0.367098    69A      0.369985  
      70A      0.383751    71A      0.388804    72A      0.389908  
      73A      0.399656    74A      0.405104    75A      0.419990  
      76A      0.426606    77A      0.428803    78A      0.440189  
      79A      0.447148    80A      0.450524    81A      0.454020  
      82A      0.467071    83A      0.478424    84A      0.499910  
      85A      0.501504    86A      0.507108    87A      0.527345  
      88A      0.537309    89A      0.543415    90A      0.545940  
      91A      0.555381    92A      0.574064    93A      0.577416  
      94A      0.578922    95A      0.592157    96A      0.609136  
      97A      0.619385    98A      0.637315    99A      0.638924  
     100A      0.640996   101A      0.665776   102A      0.673469  
     103A      0.679115   104A      0.687752   105A      0.692141  
     106A      0.694394   107A      0.708997   108A      0.725220  
     109A      0.742140   110A      0.746593   111A      0.762535  
     112A      0.771609   113A      0.777870   114A      0.785998  
     115A      0.786867   116A      0.800677   117A      0.818903  
     118A      0.849900   119A      0.856900   120A      0.859641  
     121A      0.866842   122A      0.883811   123A      0.896409  
     124A      0.904306   125A      0.915925   126A      0.923948  
     127A      0.924390   128A      0.930638   129A      0.937680  
     130A      0.944079   131A      0.948099   132A      0.952758  
     133A      0.969633   134A      0.982746   135A      0.990390  
     136A      0.992145   137A      0.997798   138A      1.017970  
     139A      1.026813   140A      1.037199   141A      1.042261  
     142A      1.056808   143A      1.066294   144A      1.066436  
     145A      1.090457   146A      1.093186   147A      1.096477  
     148A      1.109241   149A      1.126015   150A      1.135149  
     151A      1.146405   152A      1.147245   153A      1.154962  
     154A      1.171804   155A      1.177612   156A      1.194468  
     157A      1.197072   158A      1.208830   159A      1.224205  
     160A      1.241380   161A      1.248888   162A      1.259677  
     163A      1.262480   164A      1.273294   165A      1.289285  
     166A      1.297433   167A      1.310674   168A      1.326631  
     169A      1.327418   170A      1.355811   171A      1.361843  
     172A      1.374491   173A      1.377965   174A      1.382733  
     175A      1.407294   176A      1.422575   177A      1.424185  
     178A      1.444639   179A      1.456840   180A      1.471075  
     181A      1.474591   182A      1.477153   183A      1.481632  
     184A      1.489491   185A      1.494020   186A      1.499300  
     187A      1.521911   188A      1.524208   189A      1.527751  
     190A      1.549329   191A      1.578351   192A      1.580274  
     193A      1.584929   194A      1.614113   195A      1.629162  
     196A      1.635003   197A      1.642264   198A      1.670611  
     199A      1.695509   200A      1.702341   201A      1.719991  
     202A      1.748524   203A      1.750402   204A      1.770106  
     205A      1.800182   206A      1.807098   207A      1.821999  
     208A      1.839755   209A      1.867140   210A      1.892421  
     211A      1.912407   212A      1.917841   213A      1.964243  
     214A      1.986466   215A      1.988310   216A      2.020652  
     217A      2.022396   218A      2.047096   219A      2.065801  
     220A      2.070263   221A      2.089005   222A      2.105867  
     223A      2.135706   224A      2.140170   225A      2.156553  
     226A      2.172261   227A      2.187453   228A      2.215375  
     229A      2.218211   230A      2.229709   231A      2.248492  
     232A      2.254773   233A      2.260991   234A      2.301555  
     235A      2.319141   236A      2.350051   237A      2.361226  
     238A      2.395214   239A      2.398314   240A      2.425387  
     241A      2.440457   242A      2.450648   243A      2.465387  
     244A      2.480783   245A      2.499699   246A      2.528964  
     247A      2.536150   248A      2.560884   249A      2.567135  
     250A      2.580304   251A      2.597459   252A      2.605124  
     253A      2.632152   254A      2.656121   255A      2.657726  
     256A      2.677414   257A      2.696308   258A      2.698687  
     259A      2.709510   260A      2.736648   261A      2.759765  
     262A      2.777951   263A      2.795458   264A      2.826032  
     265A      2.850551   266A      2.864563   267A      2.935560  
     268A      2.965807   269A      2.972224   270A      3.009995  
     271A      3.071424   272A      3.119944   273A      3.124842  
     274A      3.153346   275A      3.159167   276A      3.203735  
     277A      3.252935   278A      3.308184   279A      3.357575  
     280A      3.411683   281A      3.418918   282A      3.438543  
     283A      3.452332   284A      3.468019   285A      3.507550  
     286A      3.598163   287A      3.598255   288A      3.640016  
     289A      3.682425   290A      3.696030   291A      3.727351  
     292A      3.730442   293A      3.786032   294A      3.816646  
     295A      3.833392   296A      3.862427   297A      3.885162  
     298A      3.911103   299A      3.915745   300A      3.958898  
     301A      4.003571   302A      4.065311   303A      4.082909  
     304A      4.104829   305A      4.109457   306A      4.110881  
     307A      4.146754   308A      4.147567   309A      4.173803  
     310A      4.205014   311A      4.210648   312A      4.221798  
     313A      4.222095   314A      4.241985   315A      4.252716  
     316A      4.256532   317A      4.299889   318A      4.328525  
     319A      4.331867   320A      4.353031   321A      4.360946  
     322A      4.398376   323A      4.400116   324A      4.402972  
     325A      4.405183   326A      4.454305   327A      4.456539  
     328A      4.475430   329A      4.531728   330A      4.560170  
     331A      4.566122   332A      4.606933   333A      4.613167  
     334A      4.626898   335A      4.651941   336A      4.686077  
     337A      4.710786   338A      4.732090   339A      4.744077  
     340A      4.789224   341A      4.802931   342A      4.820704  
     343A      4.835712   344A      4.864039   345A      4.890573  
     346A      4.909545   347A      4.910332   348A      4.930858  
     349A      4.941070   350A      4.946530   351A      4.984118  
     352A      4.985254   353A      5.010668   354A      5.039903  
     355A      5.078430   356A      5.118911   357A      5.137958  
     358A      5.153756   359A      5.180903   360A      5.204135  
     361A      5.243666   362A      5.245001   363A      5.256738  
     364A      5.262774   365A      5.292313   366A      5.344752  
     367A      5.387461   368A      5.429245   369A      5.459971  
     370A      5.515535   371A      5.518100   372A      5.520807  
     373A      5.531634   374A      5.541298   375A      5.586743  
     376A      5.601065   377A      5.628941   378A      5.638855  
     379A      5.660090   380A      5.711776   381A      5.718659  
     382A      5.730206   383A      5.757792   384A      5.771044  
     385A      5.815213   386A      5.855818   387A      5.870306  
     388A      5.885105   389A      5.926973   390A      5.974024  
     391A      5.975561   392A      6.100979   393A      6.119925  
     394A      6.147001   395A      6.158301   396A      6.178597  
     397A      6.182677   398A      6.239685   399A      6.273437  
     400A      6.292540   401A      6.365622   402A      6.423290  
     403A      6.453782   404A      6.503012   405A      6.581295  
     406A      6.596087   407A      6.681965   408A      6.722687  
     409A      6.803393   410A      6.894326   411A      6.930100  
     412A      6.938591   413A      7.064291   414A      7.088280  
     415A      7.112165   416A      7.133164   417A      7.178566  
     418A      7.276155   419A      7.328128   420A      7.395242  
     421A      7.423855   422A      7.555920   423A      7.611634  
     424A      7.644836   425A      7.682764   426A      7.728730  
     427A      7.744076   428A      7.854091   429A      7.970939  
     430A      8.122198   431A      8.398073   432A     15.987641  
     433A     17.219815   434A     17.578557   435A     17.894834  
     436A     18.982440   437A     19.138436  

    Final Occupation by Irrep:
              A 
    DOCC [    24 ]

  @DF-RHF Final Energy:  -318.16186979244276

   => Energetics <=

    Nuclear Repulsion Energy =            232.7888086791255944
    One-Electron Energy =                -895.5386484986230471
    Two-Electron Energy =                 344.5879700270546664
    Total Energy =                       -318.1618697924427579

Computation Completed


Properties will be evaluated at   0.000000,   0.000000,   0.000000 [a0]

Properties computed using the SCF density matrix

  Nuclear Dipole Moment: [e a0]
     X:     1.7296      Y:    -1.9587      Z:    -0.0000

  Electronic Dipole Moment: [e a0]
     X:    -1.3451      Y:     1.2964      Z:     0.0000

  Dipole Moment: [e a0]
     X:     0.3845      Y:    -0.6623      Z:    -0.0000     Total:     0.7658

  Dipole Moment: [D]
     X:     0.9773      Y:    -1.6834      Z:    -0.0000     Total:     1.9465


*** tstop() called on node54.bme.utexas.edu at Mon Sep  9 16:47:58 2019
Module time:
	user time   =      72.11 seconds =       1.20 minutes
	system time =       1.44 seconds =       0.02 minutes
	total time  =         20 seconds =       0.33 minutes
Total time:
	user time   =      72.11 seconds =       1.20 minutes
	system time =       1.44 seconds =       0.02 minutes
	total time  =         20 seconds =       0.33 minutes

  //>>>>>>>>>>>>>>>>>>>>>>>>>>>>>>>>>>>//
  //            Monomer A HF           //
  //<<<<<<<<<<<<<<<<<<<<<<<<<<<<<<<<<<<//


*** tstart() called on node54.bme.utexas.edu
*** at Mon Sep  9 16:47:58 2019

   => Loading Basis Set <=

    Name: AUG-CC-PVTZ
    Role: ORBITAL
    Keyword: BASIS
    atoms 1, 7                 entry C          line   235 file /home/xy3866/psi4conda/share/psi4/basis/aug-cc-pvtz.gbs 
    atoms 2, 5-6, 8, 10, 12-13 entry H          line    36 file /home/xy3866/psi4conda/share/psi4/basis/aug-cc-pvtz.gbs 
    atoms 3                    entry O          line   327 file /home/xy3866/psi4conda/share/psi4/basis/aug-cc-pvtz.gbs 
    atoms 4, 9, 11             entry N          line   281 file /home/xy3866/psi4conda/share/psi4/basis/aug-cc-pvtz.gbs 


         ---------------------------------------------------------
                                   SCF
               by Justin Turney, Rob Parrish, Andy Simmonett
                          and Daniel G. A. Smith
                              RHF Reference
                        4 Threads,  30517 MiB Core
         ---------------------------------------------------------

  ==> Geometry <==

    Molecular point group: c1
    Full point group: C1

    Geometry (in Angstrom), charge = 0, multiplicity = 1:

       Center              X                  Y                   Z               Mass       
    ------------   -----------------  -----------------  -----------------  -----------------
         C           -1.958406844901     0.267552030814     0.000010194538    12.000000000000
         H           -3.055920844901     0.333780030814    -0.000010805462     1.007825032230
         O           -1.261428844901     1.278039030814    -0.000003805462    15.994914619570
         N           -1.502452844901    -0.993595969186     0.000001194538    14.003074004430
         H           -0.493890844901    -1.190597969186     0.000000194538     1.007825032230
         H           -2.163036844901    -1.747528969186    -0.000009805462     1.007825032230
      Gh(C)           2.006376655099    -0.254697669186     0.000001194538    12.000000000000
      Gh(H)           3.096288655099    -0.280965669186    -0.000002805462     1.007825032230
      Gh(N)           1.274470655099    -1.316356669186    -0.000000805462    14.003074004430
      Gh(H)           1.874235655099    -2.132675769186    -0.000006805462     1.007825032230
      Gh(N)           1.494201655099     0.990244230814    -0.000002805462    14.003074004430
      Gh(H)           0.487561655099     1.140220330814    -0.000003805462     1.007825032230
      Gh(H)           2.110088655099     1.777797330814    -0.000007805462     1.007825032230

  Running in c1 symmetry.

  Rotational constants: A =      0.18459  B =      0.07032  C =      0.05092 [cm^-1]
  Rotational constants: A =   5533.88151  B =   2108.03690  C =   1526.53114 [MHz]
  Nuclear repulsion =   71.120500652173718

  Charge       = 0
  Multiplicity = 1
  Electrons    = 24
  Nalpha       = 12
  Nbeta        = 12

  ==> Algorithm <==

  SCF Algorithm Type is DF.
  DIIS enabled.
  MOM disabled.
  Fractional occupation disabled.
  Guess Type is SAD.
  Energy threshold   = 1.00e-08
  Density threshold  = 1.00e-08
  Integral threshold = 0.00e+00

  ==> Primary Basis <==

  Basis Set: AUG-CC-PVTZ
    Blend: AUG-CC-PVTZ
    Number of shells: 147
    Number of basis function: 437
    Number of Cartesian functions: 505
    Spherical Harmonics?: true
    Max angular momentum: 3

   => Loading Basis Set <=

    Name: (AUG-CC-PVTZ AUX)
    Role: JKFIT
    Keyword: DF_BASIS_SCF
    atoms 1, 7                 entry C          line   162 file /home/xy3866/psi4conda/share/psi4/basis/aug-cc-pvtz-jkfit.gbs 
    atoms 2, 5-6, 8, 10, 12-13 entry H          line    70 file /home/xy3866/psi4conda/share/psi4/basis/aug-cc-pvtz-jkfit.gbs 
    atoms 3                    entry O          line   286 file /home/xy3866/psi4conda/share/psi4/basis/aug-cc-pvtz-jkfit.gbs 
    atoms 4, 9, 11             entry N          line   224 file /home/xy3866/psi4conda/share/psi4/basis/aug-cc-pvtz-jkfit.gbs 

  ==> Pre-Iterations <==

   -------------------------------------------------------
    Irrep   Nso     Nmo     Nalpha   Nbeta   Ndocc  Nsocc
   -------------------------------------------------------
     A        437     437       0       0       0       0
   -------------------------------------------------------
    Total     437     437      12      12      12       0
   -------------------------------------------------------

  ==> Integral Setup <==

  ==> DiskDFJK: Density-Fitted J/K Matrices <==

    J tasked:                  Yes
    K tasked:                  Yes
    wK tasked:                  No
    OpenMP threads:              4
    Integrals threads:           4
    Memory [MiB]:            22888
    Algorithm:                Core
    Integral Cache:           LOAD
    Schwarz Cutoff:          1E-12
    Fitting Condition:       1E-10

   => Auxiliary Basis Set <=

  Basis Set: (AUG-CC-PVTZ AUX)
    Blend: AUG-CC-PVTZ-JKFIT
    Number of shells: 278
    Number of basis function: 946
    Number of Cartesian functions: 1171
    Spherical Harmonics?: true
    Max angular momentum: 4

  Minimum eigenvalue in the overlap matrix is 2.4202277550E-05.
  Using Symmetric Orthogonalization.

  SCF Guess: Superposition of Atomic Densities via on-the-fly atomic UHF.

  ==> Iterations <==

                           Total Energy        Delta E     RMS |[F,P]|

   @DF-RHF iter SAD:  -168.19954679910046   -1.68200e+02   0.00000e+00 
   @DF-RHF iter   1:  -168.87904786459319   -6.79501e-01   1.22476e-03 DIIS
   @DF-RHF iter   2:  -168.95717812618258   -7.81303e-02   8.37994e-04 DIIS
   @DF-RHF iter   3:  -169.00104071310719   -4.38626e-02   1.20124e-04 DIIS
   @DF-RHF iter   4:  -169.00248594386940   -1.44523e-03   5.20283e-05 DIIS
   @DF-RHF iter   5:  -169.00279149865236   -3.05555e-04   1.04702e-05 DIIS
   @DF-RHF iter   6:  -169.00282199659608   -3.04979e-05   4.99584e-06 DIIS
   @DF-RHF iter   7:  -169.00282840917373   -6.41258e-06   2.01072e-06 DIIS
   @DF-RHF iter   8:  -169.00282953117215   -1.12200e-06   6.08746e-07 DIIS
   @DF-RHF iter   9:  -169.00282963676739   -1.05595e-07   1.67932e-07 DIIS
   @DF-RHF iter  10:  -169.00282964507363   -8.30624e-09   4.14507e-08 DIIS
   @DF-RHF iter  11:  -169.00282964548663   -4.12996e-10   7.43251e-09 DIIS
  Energy and wave function converged.


  ==> Post-Iterations <==

    Orbital Energies [Eh]
    ---------------------

    Doubly Occupied:                                                      

       1A    -20.526727     2A    -15.602863     3A    -11.356501  
       4A     -1.376561     5A     -1.226891     6A     -0.853743  
       7A     -0.755404     8A     -0.676730     9A     -0.602576  
      10A     -0.571852    11A     -0.434963    12A     -0.422011  

    Virtual:                                                              

      13A      0.017447    14A      0.028977    15A      0.038498  
      16A      0.050641    17A      0.055250    18A      0.070299  
      19A      0.072602    20A      0.086542    21A      0.086725  
      22A      0.089710    23A      0.107336    24A      0.114603  
      25A      0.122125    26A      0.127318    27A      0.134242  
      28A      0.139548    29A      0.146517    30A      0.150730  
      31A      0.158927    32A      0.167926    33A      0.170797  
      34A      0.187853    35A      0.192508    36A      0.200205  
      37A      0.210271    38A      0.218608    39A      0.243767  
      40A      0.251338    41A      0.255350    42A      0.256854  
      43A      0.268407    44A      0.278183    45A      0.289507  
      46A      0.292620    47A      0.294205    48A      0.308602  
      49A      0.311578    50A      0.322424    51A      0.330720  
      52A      0.340236    53A      0.347852    54A      0.348590  
      55A      0.359082    56A      0.360152    57A      0.364332  
      58A      0.369876    59A      0.377582    60A      0.389306  
      61A      0.390374    62A      0.397116    63A      0.407724  
      64A      0.418207    65A      0.426350    66A      0.428794  
      67A      0.435379    68A      0.440789    69A      0.445521  
      70A      0.457149    71A      0.466145    72A      0.484507  
      73A      0.498499    74A      0.502105    75A      0.515804  
      76A      0.534376    77A      0.542946    78A      0.552682  
      79A      0.565799    80A      0.568017    81A      0.578259  
      82A      0.587358    83A      0.599418    84A      0.619601  
      85A      0.631376    86A      0.640971    87A      0.642025  
      88A      0.649281    89A      0.661413    90A      0.668417  
      91A      0.696941    92A      0.710037    93A      0.719648  
      94A      0.741324    95A      0.747604    96A      0.752149  
      97A      0.764190    98A      0.781136    99A      0.781419  
     100A      0.788818   101A      0.791676   102A      0.797399  
     103A      0.807604   104A      0.817018   105A      0.828858  
     106A      0.830784   107A      0.859887   108A      0.863926  
     109A      0.884001   110A      0.891214   111A      0.893342  
     112A      0.897987   113A      0.906024   114A      0.913265  
     115A      0.926437   116A      0.929382   117A      0.931988  
     118A      0.942889   119A      0.961445   120A      0.965549  
     121A      0.982780   122A      0.985434   123A      1.011159  
     124A      1.014512   125A      1.031517   126A      1.036417  
     127A      1.047168   128A      1.051870   129A      1.056429  
     130A      1.063744   131A      1.077943   132A      1.080743  
     133A      1.090139   134A      1.098994   135A      1.108335  
     136A      1.118193   137A      1.128365   138A      1.137759  
     139A      1.155100   140A      1.155845   141A      1.178612  
     142A      1.182766   143A      1.190146   144A      1.194165  
     145A      1.220437   146A      1.235214   147A      1.247359  
     148A      1.253791   149A      1.264518   150A      1.269507  
     151A      1.301733   152A      1.314077   153A      1.329225  
     154A      1.331051   155A      1.333113   156A      1.360314  
     157A      1.372272   158A      1.372380   159A      1.391519  
     160A      1.404429   161A      1.417865   162A      1.445290  
     163A      1.457738   164A      1.460609   165A      1.471649  
     166A      1.481726   167A      1.495868   168A      1.508847  
     169A      1.513109   170A      1.517764   171A      1.529939  
     172A      1.547710   173A      1.568841   174A      1.582832  
     175A      1.594433   176A      1.618785   177A      1.633476  
     178A      1.633827   179A      1.644989   180A      1.650410  
     181A      1.665137   182A      1.681563   183A      1.682123  
     184A      1.697772   185A      1.712738   186A      1.720820  
     187A      1.738981   188A      1.741940   189A      1.749336  
     190A      1.752089   191A      1.771586   192A      1.775767  
     193A      1.800814   194A      1.814760   195A      1.824373  
     196A      1.828010   197A      1.845235   198A      1.854168  
     199A      1.906903   200A      1.923081   201A      1.948392  
     202A      1.976091   203A      2.019085   204A      2.027145  
     205A      2.039812   206A      2.043252   207A      2.045769  
     208A      2.082120   209A      2.084132   210A      2.099052  
     211A      2.115441   212A      2.147985   213A      2.154913  
     214A      2.170229   215A      2.221218   216A      2.257059  
     217A      2.288977   218A      2.289889   219A      2.329845  
     220A      2.336509   221A      2.346584   222A      2.358141  
     223A      2.376927   224A      2.391385   225A      2.397565  
     226A      2.420778   227A      2.430144   228A      2.444031  
     229A      2.460219   230A      2.489588   231A      2.508701  
     232A      2.532138   233A      2.542323   234A      2.556616  
     235A      2.568242   236A      2.596879   237A      2.611569  
     238A      2.641007   239A      2.646835   240A      2.647491  
     241A      2.696778   242A      2.731015   243A      2.733449  
     244A      2.751475   245A      2.762972   246A      2.776566  
     247A      2.788990   248A      2.826501   249A      2.832315  
     250A      2.861114   251A      2.870169   252A      2.880911  
     253A      2.942780   254A      2.969894   255A      2.982844  
     256A      2.987026   257A      3.002011   258A      3.044493  
     259A      3.072578   260A      3.099743   261A      3.127524  
     262A      3.160957   263A      3.176919   264A      3.201110  
     265A      3.207665   266A      3.215819   267A      3.281965  
     268A      3.336755   269A      3.347652   270A      3.381165  
     271A      3.431821   272A      3.461677   273A      3.486999  
     274A      3.553740   275A      3.572637   276A      3.603087  
     277A      3.629913   278A      3.684374   279A      3.714797  
     280A      3.765342   281A      3.827082   282A      3.864237  
     283A      3.874152   284A      3.927270   285A      3.970985  
     286A      4.068783   287A      4.080326   288A      4.109842  
     289A      4.114294   290A      4.140927   291A      4.171968  
     292A      4.190267   293A      4.191359   294A      4.216597  
     295A      4.239436   296A      4.248834   297A      4.318351  
     298A      4.364716   299A      4.378757   300A      4.415799  
     301A      4.434136   302A      4.438927   303A      4.450524  
     304A      4.457950   305A      4.491692   306A      4.519355  
     307A      4.561487   308A      4.569386   309A      4.578148  
     310A      4.647362   311A      4.665854   312A      4.671978  
     313A      4.703967   314A      4.722042   315A      4.762688  
     316A      4.770845   317A      4.798901   318A      4.818977  
     319A      4.845370   320A      4.866671   321A      4.881237  
     322A      4.890426   323A      4.912882   324A      4.913841  
     325A      4.920714   326A      4.948888   327A      4.956987  
     328A      4.984125   329A      4.993758   330A      5.037239  
     331A      5.040685   332A      5.062079   333A      5.084695  
     334A      5.124393   335A      5.141597   336A      5.203787  
     337A      5.216710   338A      5.224502   339A      5.247370  
     340A      5.255386   341A      5.281675   342A      5.321373  
     343A      5.327225   344A      5.354476   345A      5.371740  
     346A      5.404692   347A      5.410833   348A      5.442226  
     349A      5.459187   350A      5.495940   351A      5.509017  
     352A      5.559370   353A      5.570692   354A      5.623292  
     355A      5.652903   356A      5.686625   357A      5.727199  
     358A      5.773767   359A      5.784892   360A      5.840263  
     361A      5.876175   362A      5.892765   363A      5.974034  
     364A      6.029770   365A      6.037365   366A      6.071719  
     367A      6.095333   368A      6.124322   369A      6.167309  
     370A      6.208416   371A      6.271235   372A      6.274228  
     373A      6.289311   374A      6.348271   375A      6.427445  
     376A      6.442212   377A      6.458137   378A      6.470302  
     379A      6.516479   380A      6.575064   381A      6.602067  
     382A      6.627522   383A      6.663594   384A      6.686841  
     385A      6.741118   386A      6.820975   387A      6.898143  
     388A      6.903818   389A      6.922492   390A      6.934991  
     391A      6.981746   392A      7.065928   393A      7.151776  
     394A      7.151856   395A      7.188525   396A      7.227598  
     397A      7.291122   398A      7.333334   399A      7.349442  
     400A      7.414727   401A      7.424371   402A      7.483057  
     403A      7.585167   404A      7.626772   405A      7.635658  
     406A      7.674424   407A      7.679280   408A      7.679593  
     409A      7.763898   410A      7.775715   411A      7.810029  
     412A      7.958800   413A      7.998164   414A      8.071888  
     415A      8.088603   416A      8.356784   417A      8.398301  
     418A      8.550750   419A      8.617784   420A      9.035276  
     421A      9.342189   422A      9.458037   423A      9.503785  
     424A      9.575626   425A     10.187152   426A     10.790960  
     427A     11.249578   428A     11.662025   429A     11.776016  
     430A     12.139473   431A     12.947619   432A     16.034768  
     433A     17.764749   434A     18.944171   435A     51.894744  
     436A     59.523405   437A     62.795555  

    Final Occupation by Irrep:
              A 
    DOCC [    12 ]

  @DF-RHF Final Energy:  -169.00282964548663

   => Energetics <=

    Nuclear Repulsion Energy =             71.1205006521737175
    One-Electron Energy =                -371.4330128011790180
    Two-Electron Energy =                 131.3096825035187010
    Total Energy =                       -169.0028296454866279

Computation Completed


Properties will be evaluated at   0.000000,   0.000000,   0.000000 [a0]

Properties computed using the SCF density matrix

  Nuclear Dipole Moment: [e a0]
     X:   -71.9454      Y:     4.2899      Z:     0.0000

  Electronic Dipole Moment: [e a0]
     X:    71.3652      Y:    -5.9498      Z:    -0.0000

  Dipole Moment: [e a0]
     X:    -0.5802      Y:    -1.6599      Z:     0.0000     Total:     1.7584

  Dipole Moment: [D]
     X:    -1.4747      Y:    -4.2191      Z:     0.0000     Total:     4.4694


*** tstop() called on node54.bme.utexas.edu at Mon Sep  9 16:48:10 2019
Module time:
	user time   =      42.13 seconds =       0.70 minutes
	system time =       0.84 seconds =       0.01 minutes
	total time  =         12 seconds =       0.20 minutes
Total time:
	user time   =     114.26 seconds =       1.90 minutes
	system time =       2.28 seconds =       0.04 minutes
	total time  =         32 seconds =       0.53 minutes

  //>>>>>>>>>>>>>>>>>>>>>>>>>>>>>>>>>>>//
  //            Monomer B HF           //
  //<<<<<<<<<<<<<<<<<<<<<<<<<<<<<<<<<<<//


*** tstart() called on node54.bme.utexas.edu
*** at Mon Sep  9 16:48:10 2019

   => Loading Basis Set <=

    Name: AUG-CC-PVTZ
    Role: ORBITAL
    Keyword: BASIS
    atoms 1, 7                 entry C          line   235 file /home/xy3866/psi4conda/share/psi4/basis/aug-cc-pvtz.gbs 
    atoms 2, 5-6, 8, 10, 12-13 entry H          line    36 file /home/xy3866/psi4conda/share/psi4/basis/aug-cc-pvtz.gbs 
    atoms 3                    entry O          line   327 file /home/xy3866/psi4conda/share/psi4/basis/aug-cc-pvtz.gbs 
    atoms 4, 9, 11             entry N          line   281 file /home/xy3866/psi4conda/share/psi4/basis/aug-cc-pvtz.gbs 


         ---------------------------------------------------------
                                   SCF
               by Justin Turney, Rob Parrish, Andy Simmonett
                          and Daniel G. A. Smith
                              RHF Reference
                        4 Threads,  30517 MiB Core
         ---------------------------------------------------------

  ==> Geometry <==

    Molecular point group: c1
    Full point group: C1

    Geometry (in Angstrom), charge = 0, multiplicity = 1:

       Center              X                  Y                   Z               Mass       
    ------------   -----------------  -----------------  -----------------  -----------------
      Gh(C)          -1.958406844901     0.267552030814     0.000010194538    12.000000000000
      Gh(H)          -3.055920844901     0.333780030814    -0.000010805462     1.007825032230
      Gh(O)          -1.261428844901     1.278039030814    -0.000003805462    15.994914619570
      Gh(N)          -1.502452844901    -0.993595969186     0.000001194538    14.003074004430
      Gh(H)          -0.493890844901    -1.190597969186     0.000000194538     1.007825032230
      Gh(H)          -2.163036844901    -1.747528969186    -0.000009805462     1.007825032230
         C            2.006376655099    -0.254697669186     0.000001194538    12.000000000000
         H            3.096288655099    -0.280965669186    -0.000002805462     1.007825032230
         N            1.274470655099    -1.316356669186    -0.000000805462    14.003074004430
         H            1.874235655099    -2.132675769186    -0.000006805462     1.007825032230
         N            1.494201655099     0.990244230814    -0.000002805462    14.003074004430
         H            0.487561655099     1.140220330814    -0.000003805462     1.007825032230
         H            2.110088655099     1.777797330814    -0.000007805462     1.007825032230

  Running in c1 symmetry.

  Rotational constants: A =      0.18459  B =      0.07032  C =      0.05092 [cm^-1]
  Rotational constants: A =   5533.88151  B =   2108.03690  C =   1526.53114 [MHz]
  Nuclear repulsion =   72.220841003124917

  Charge       = 0
  Multiplicity = 1
  Electrons    = 24
  Nalpha       = 12
  Nbeta        = 12

  ==> Algorithm <==

  SCF Algorithm Type is DF.
  DIIS enabled.
  MOM disabled.
  Fractional occupation disabled.
  Guess Type is SAD.
  Energy threshold   = 1.00e-08
  Density threshold  = 1.00e-08
  Integral threshold = 0.00e+00

  ==> Primary Basis <==

  Basis Set: AUG-CC-PVTZ
    Blend: AUG-CC-PVTZ
    Number of shells: 147
    Number of basis function: 437
    Number of Cartesian functions: 505
    Spherical Harmonics?: true
    Max angular momentum: 3

   => Loading Basis Set <=

    Name: (AUG-CC-PVTZ AUX)
    Role: JKFIT
    Keyword: DF_BASIS_SCF
    atoms 1, 7                 entry C          line   162 file /home/xy3866/psi4conda/share/psi4/basis/aug-cc-pvtz-jkfit.gbs 
    atoms 2, 5-6, 8, 10, 12-13 entry H          line    70 file /home/xy3866/psi4conda/share/psi4/basis/aug-cc-pvtz-jkfit.gbs 
    atoms 3                    entry O          line   286 file /home/xy3866/psi4conda/share/psi4/basis/aug-cc-pvtz-jkfit.gbs 
    atoms 4, 9, 11             entry N          line   224 file /home/xy3866/psi4conda/share/psi4/basis/aug-cc-pvtz-jkfit.gbs 

  ==> Pre-Iterations <==

   -------------------------------------------------------
    Irrep   Nso     Nmo     Nalpha   Nbeta   Ndocc  Nsocc
   -------------------------------------------------------
     A        437     437       0       0       0       0
   -------------------------------------------------------
    Total     437     437      12      12      12       0
   -------------------------------------------------------

  ==> Integral Setup <==

  ==> DiskDFJK: Density-Fitted J/K Matrices <==

    J tasked:                  Yes
    K tasked:                  Yes
    wK tasked:                  No
    OpenMP threads:              4
    Integrals threads:           4
    Memory [MiB]:            22888
    Algorithm:                Core
    Integral Cache:           LOAD
    Schwarz Cutoff:          1E-12
    Fitting Condition:       1E-10

   => Auxiliary Basis Set <=

  Basis Set: (AUG-CC-PVTZ AUX)
    Blend: AUG-CC-PVTZ-JKFIT
    Number of shells: 278
    Number of basis function: 946
    Number of Cartesian functions: 1171
    Spherical Harmonics?: true
    Max angular momentum: 4

  Minimum eigenvalue in the overlap matrix is 2.4202277550E-05.
  Using Symmetric Orthogonalization.

  SCF Guess: Superposition of Atomic Densities via on-the-fly atomic UHF.

  ==> Iterations <==

                           Total Energy        Delta E     RMS |[F,P]|

   @DF-RHF iter SAD:  -148.39145772047027   -1.48391e+02   0.00000e+00 
   @DF-RHF iter   1:  -148.99808201860395   -6.06624e-01   1.25642e-03 DIIS
   @DF-RHF iter   2:  -149.10007459723997   -1.01993e-01   7.40098e-04 DIIS
   @DF-RHF iter   3:  -149.14185060748468   -4.17760e-02   1.03369e-04 DIIS
   @DF-RHF iter   4:  -149.14325970845903   -1.40910e-03   5.11166e-05 DIIS
   @DF-RHF iter   5:  -149.14353564680374   -2.75938e-04   9.28868e-06 DIIS
   @DF-RHF iter   6:  -149.14356391076211   -2.82640e-05   4.37892e-06 DIIS
   @DF-RHF iter   7:  -149.14356854268684   -4.63192e-06   1.76442e-06 DIIS
   @DF-RHF iter   8:  -149.14356947116235   -9.28476e-07   5.20509e-07 DIIS
   @DF-RHF iter   9:  -149.14356955561186   -8.44495e-08   1.58861e-07 DIIS
   @DF-RHF iter  10:  -149.14356956304067   -7.42881e-09   3.95465e-08 DIIS
   @DF-RHF iter  11:  -149.14356956350701   -4.66343e-10   7.55701e-09 DIIS
  Energy and wave function converged.


  ==> Post-Iterations <==

    Orbital Energies [Eh]
    ---------------------

    Doubly Occupied:                                                      

       1A    -15.580936     2A    -15.519594     3A    -11.314717  
       4A     -1.259447     5A     -1.137354     6A     -0.830837  
       7A     -0.746503     8A     -0.640067     9A     -0.616574  
      10A     -0.530112    11A     -0.419654    12A     -0.359596  

    Virtual:                                                              

      13A      0.022326    14A      0.031307    15A      0.037612  
      16A      0.051840    17A      0.056613    18A      0.070434  
      19A      0.073830    20A      0.086244    21A      0.087163  
      22A      0.099076    23A      0.102466    24A      0.116348  
      25A      0.127774    26A      0.133669    27A      0.138745  
      28A      0.141407    29A      0.147029    30A      0.155216  
      31A      0.159102    32A      0.173428    33A      0.175150  
      34A      0.186835    35A      0.205450    36A      0.207140  
      37A      0.215395    38A      0.220410    39A      0.230326  
      40A      0.241314    41A      0.244251    42A      0.255354  
      43A      0.260142    44A      0.280868    45A      0.284248  
      46A      0.305688    47A      0.306129    48A      0.309720  
      49A      0.318854    50A      0.320280    51A      0.326697  
      52A      0.336017    53A      0.346310    54A      0.358256  
      55A      0.360783    56A      0.366630    57A      0.371050  
      58A      0.378630    59A      0.393411    60A      0.397873  
      61A      0.399425    62A      0.404752    63A      0.412616  
      64A      0.419134    65A      0.425284    66A      0.425834  
      67A      0.441474    68A      0.451798    69A      0.453441  
      70A      0.470337    71A      0.476197    72A      0.490411  
      73A      0.507132    74A      0.510662    75A      0.519045  
      76A      0.527173    77A      0.533744    78A      0.536882  
      79A      0.558640    80A      0.563273    81A      0.570626  
      82A      0.590075    83A      0.596984    84A      0.634588  
      85A      0.651722    86A      0.654038    87A      0.661533  
      88A      0.664263    89A      0.673369    90A      0.679749  
      91A      0.682294    92A      0.690403    93A      0.699312  
      94A      0.716056    95A      0.733541    96A      0.739212  
      97A      0.743951    98A      0.768931    99A      0.769430  
     100A      0.783311   101A      0.783314   102A      0.815640  
     103A      0.819556   104A      0.826350   105A      0.838395  
     106A      0.853261   107A      0.856334   108A      0.885830  
     109A      0.887643   110A      0.892622   111A      0.902478  
     112A      0.912337   113A      0.914009   114A      0.926865  
     115A      0.927357   116A      0.936708   117A      0.942770  
     118A      0.956779   119A      0.966593   120A      0.975087  
     121A      0.982363   122A      0.991313   123A      1.000520  
     124A      1.016164   125A      1.026572   126A      1.028509  
     127A      1.034004   128A      1.059276   129A      1.067174  
     130A      1.072830   131A      1.077865   132A      1.084761  
     133A      1.097329   134A      1.098125   135A      1.107004  
     136A      1.109685   137A      1.119119   138A      1.131774  
     139A      1.141764   140A      1.167812   141A      1.171410  
     142A      1.189212   143A      1.200302   144A      1.202717  
     145A      1.210094   146A      1.219891   147A      1.233005  
     148A      1.261304   149A      1.263767   150A      1.272202  
     151A      1.280872   152A      1.293624   153A      1.309900  
     154A      1.341433   155A      1.353101   156A      1.355542  
     157A      1.370241   158A      1.380296   159A      1.381736  
     160A      1.397891   161A      1.414220   162A      1.422903  
     163A      1.424270   164A      1.427458   165A      1.442414  
     166A      1.471710   167A      1.476720   168A      1.489396  
     169A      1.495846   170A      1.514848   171A      1.521987  
     172A      1.533769   173A      1.537045   174A      1.564874  
     175A      1.572001   176A      1.599954   177A      1.607765  
     178A      1.650409   179A      1.654984   180A      1.658191  
     181A      1.667059   182A      1.675831   183A      1.695392  
     184A      1.699563   185A      1.706377   186A      1.725035  
     187A      1.734869   188A      1.751564   189A      1.751875  
     190A      1.770902   191A      1.794752   192A      1.795179  
     193A      1.824589   194A      1.851434   195A      1.856392  
     196A      1.888226   197A      1.894535   198A      1.905794  
     199A      1.939109   200A      1.958788   201A      1.962365  
     202A      1.963928   203A      2.000997   204A      2.014344  
     205A      2.051160   206A      2.068215   207A      2.083885  
     208A      2.089879   209A      2.098312   210A      2.100521  
     211A      2.132379   212A      2.134742   213A      2.150600  
     214A      2.181190   215A      2.202207   216A      2.217293  
     217A      2.231035   218A      2.238265   219A      2.313245  
     220A      2.317220   221A      2.345278   222A      2.365778  
     223A      2.389241   224A      2.392398   225A      2.412671  
     226A      2.418494   227A      2.440067   228A      2.459665  
     229A      2.470500   230A      2.510545   231A      2.514307  
     232A      2.551988   233A      2.570312   234A      2.577795  
     235A      2.584227   236A      2.608087   237A      2.636397  
     238A      2.646507   239A      2.663431   240A      2.677274  
     241A      2.690399   242A      2.696589   243A      2.730048  
     244A      2.738409   245A      2.758594   246A      2.772646  
     247A      2.785816   248A      2.811545   249A      2.844175  
     250A      2.877968   251A      2.886734   252A      2.923852  
     253A      2.932577   254A      2.978114   255A      2.989969  
     256A      3.025526   257A      3.045882   258A      3.061263  
     259A      3.099090   260A      3.127104   261A      3.152962  
     262A      3.152991   263A      3.212246   264A      3.213416  
     265A      3.266788   266A      3.313564   267A      3.366437  
     268A      3.408433   269A      3.440113   270A      3.472468  
     271A      3.492173   272A      3.511797   273A      3.549570  
     274A      3.568531   275A      3.572929   276A      3.619910  
     277A      3.699212   278A      3.751839   279A      3.771977  
     280A      3.825336   281A      3.837065   282A      3.871696  
     283A      3.872777   284A      3.901425   285A      3.966950  
     286A      3.974381   287A      4.043733   288A      4.065181  
     289A      4.082575   290A      4.082688   291A      4.126263  
     292A      4.148935   293A      4.150785   294A      4.172377  
     295A      4.177116   296A      4.186977   297A      4.213426  
     298A      4.252971   299A      4.296809   300A      4.325286  
     301A      4.336912   302A      4.347847   303A      4.387900  
     304A      4.401265   305A      4.435301   306A      4.472359  
     307A      4.483366   308A      4.573813   309A      4.577236  
     310A      4.583008   311A      4.586824   312A      4.604710  
     313A      4.678623   314A      4.678652   315A      4.682714  
     316A      4.726942   317A      4.728531   318A      4.772237  
     319A      4.790788   320A      4.822602   321A      4.827609  
     322A      4.845463   323A      4.872121   324A      4.893170  
     325A      4.900482   326A      4.911276   327A      4.925642  
     328A      4.931643   329A      4.979047   330A      5.000323  
     331A      5.015299   332A      5.024279   333A      5.027170  
     334A      5.045946   335A      5.096863   336A      5.109163  
     337A      5.143969   338A      5.173726   339A      5.175867  
     340A      5.218360   341A      5.233635   342A      5.272384  
     343A      5.280014   344A      5.314561   345A      5.316377  
     346A      5.349443   347A      5.359853   348A      5.395759  
     349A      5.427245   350A      5.451687   351A      5.460045  
     352A      5.486143   353A      5.503683   354A      5.514221  
     355A      5.543730   356A      5.571704   357A      5.614952  
     358A      5.632149   359A      5.649539   360A      5.649917  
     361A      5.693784   362A      5.758945   363A      5.761931  
     364A      5.797105   365A      5.812163   366A      5.843218  
     367A      5.861624   368A      5.924949   369A      5.929339  
     370A      5.981189   371A      5.984650   372A      6.072724  
     373A      6.121224   374A      6.159365   375A      6.168691  
     376A      6.174506   377A      6.225137   378A      6.243167  
     379A      6.278174   380A      6.284460   381A      6.351304  
     382A      6.484340   383A      6.581651   384A      6.602379  
     385A      6.621432   386A      6.669407   387A      6.677090  
     388A      6.729660   389A      6.735848   390A      6.778964  
     391A      6.802861   392A      6.883529   393A      6.935916  
     394A      6.997306   395A      7.078748   396A      7.143221  
     397A      7.370682   398A      7.478306   399A      7.523070  
     400A      7.592419   401A      7.662954   402A      7.741247  
     403A      7.744161   404A      7.758456   405A      7.793921  
     406A      7.828271   407A      7.865090   408A      7.974284  
     409A      8.007971   410A      8.089117   411A      8.159966  
     412A      8.193927   413A      8.458819   414A      8.679468  
     415A      8.866224   416A      9.178980   417A      9.395564  
     418A      9.568696   419A      9.810644   420A      9.869710  
     421A     10.086566   422A     10.178146   423A     10.575770  
     424A     10.657810   425A     11.242835   426A     11.783562  
     427A     11.875083   428A     12.501477   429A     12.686552  
     430A     12.980141   431A     14.007294   432A     17.247216  
     433A     17.714979   434A     19.092045   435A     51.735495  
     436A     61.770349   437A     67.332594  

    Final Occupation by Irrep:
              A 
    DOCC [    12 ]

  @DF-RHF Final Energy:  -149.14356956350701

   => Energetics <=

    Nuclear Repulsion Energy =             72.2208410031249173
    One-Electron Energy =                -344.8180338568068919
    Two-Electron Energy =                 123.4536232901749599
    Total Energy =                       -149.1435695635070147

Computation Completed


Properties will be evaluated at   0.000000,   0.000000,   0.000000 [a0]

Properties computed using the SCF density matrix

  Nuclear Dipole Moment: [e a0]
     X:    73.6750      Y:    -6.2486      Z:    -0.0001

  Electronic Dipole Moment: [e a0]
     X:   -72.8318      Y:     7.2191      Z:     0.0001

  Dipole Moment: [e a0]
     X:     0.8432      Y:     0.9705      Z:    -0.0000     Total:     1.2856

  Dipole Moment: [D]
     X:     2.1433      Y:     2.4668      Z:    -0.0000     Total:     3.2678


*** tstop() called on node54.bme.utexas.edu at Mon Sep  9 16:48:21 2019
Module time:
	user time   =      41.27 seconds =       0.69 minutes
	system time =       0.76 seconds =       0.01 minutes
	total time  =         11 seconds =       0.18 minutes
Total time:
	user time   =     155.55 seconds =       2.59 minutes
	system time =       3.04 seconds =       0.05 minutes
	total time  =         43 seconds =       0.72 minutes
  Constructing Basis Sets for SAPT...

   => Loading Basis Set <=

    Name: (AUG-CC-PVTZ AUX)
    Role: RIFIT
    Keyword: DF_BASIS_SAPT
    atoms 1, 7                 entry C          line   148 file /home/xy3866/psi4conda/share/psi4/basis/aug-cc-pvtz-ri.gbs 
    atoms 2, 5-6, 8, 10, 12-13 entry H          line    30 file /home/xy3866/psi4conda/share/psi4/basis/aug-cc-pvtz-ri.gbs 
    atoms 3                    entry O          line   264 file /home/xy3866/psi4conda/share/psi4/basis/aug-cc-pvtz-ri.gbs 
    atoms 4, 9, 11             entry N          line   206 file /home/xy3866/psi4conda/share/psi4/basis/aug-cc-pvtz-ri.gbs 


  //>>>>>>>>>>>>>>>>>>>>>>>>>>>>>>>>>>>//
  //               SAPT2+              //
  //<<<<<<<<<<<<<<<<<<<<<<<<<<<<<<<<<<<//


*** tstart() called on node54.bme.utexas.edu
*** at Mon Sep  9 16:48:21 2019

        SAPT2+  
    Ed Hohenstein
     6 June 2009

      Orbital Information
  --------------------------
    NSO        =       437
    NMO        =       437
    NRI        =       958
    NOCC A     =        12
    NOCC B     =        12
    FOCC A     =         3
    FOCC B     =         3
    NVIR A     =       425
    NVIR B     =       425

    Estimated memory usage: 2008.5 MB

    Natural Orbital Cutoff:   1.000E-06
    Disp(T3) Truncation:            Yes
    CCD (vv|vv) Truncation:         Yes
    MBPT T2 Truncation:             Yes

    Monomer A: 241 virtual orbitals dropped
    Monomer B: 223 virtual orbitals dropped

    Elst10,r            =    -0.053540351266 [Eh]
    Exch10 (S^2)        =     0.061456106471 [Eh]
    Exch10              =     0.062794026529 [Eh]
    Ind20,r (A<-B)      =    -0.012691857154 [Eh]
    Ind20,r (B<-A)      =    -0.018322702072 [Eh]
    Ind20,r             =    -0.031014559227 [Eh]
    Exch-Ind20,r (A<-B) =     0.006528239692 [Eh]
    Exch-Ind20,r (B<-A) =     0.010842869567 [Eh]
    Exch-Ind20,r        =     0.017371109259 [Eh]
    Disp20              =    -0.019538686435 [Eh]
    Disp20 (NO)         =    -0.017113572247 [Eh]
    Exch-Disp20         =     0.004139474354 [Eh]
    Elst12,r            =     0.000570437132 [Eh]
    Exch11              =     0.000650777877 [Eh]
    Exch12              =     0.005627193168 [Eh]
    Ind22               =    -0.003496609077 [Eh]
    Disp21              =     0.001505246580 [Eh]
    Disp22 (SDQ)        =     0.000056421747 [Eh]

    (i =   1 of   9)         27 seconds
    (i =   2 of   9)         53 seconds
    (i =   3 of   9)         80 seconds
    (i =   4 of   9)        107 seconds
    (i =   5 of   9)        134 seconds
    (i =   6 of   9)        160 seconds
    (i =   7 of   9)        187 seconds
    (i =   8 of   9)        214 seconds
    (i =   9 of   9)        240 seconds

    Disp220 (T)         =    -0.001560820597 [Eh]

    (i =   1 of   9)         30 seconds
    (i =   2 of   9)         61 seconds
    (i =   3 of   9)         91 seconds
    (i =   4 of   9)        122 seconds
    (i =   5 of   9)        153 seconds
    (i =   6 of   9)        183 seconds
    (i =   7 of   9)        214 seconds
    (i =   8 of   9)        245 seconds
    (i =   9 of   9)        275 seconds

    Disp202 (T)         =    -0.001438474465 [Eh]

    Disp22 (T)          =    -0.002999295062 [Eh]

    Est. Disp220 (T)    =    -0.001781999912 [Eh]
    Est. Disp202 (T)    =    -0.001642316468 [Eh]

    Est. Disp22 (T)     =    -0.003424316379 [Eh]

    SAPT Results 
  --------------------------------------------------------------------------------------------------------
    Electrostatics                -52.96991413 [mEh]     -33.23912294 [kcal/mol]    -139.07249040 [kJ/mol]
      Elst10,r                    -53.54035127 [mEh]     -33.59707765 [kcal/mol]    -140.57017288 [kJ/mol]
      Elst12,r                      0.57043713 [mEh]       0.35795470 [kcal/mol]       1.49768248 [kJ/mol]

    Exchange                       69.07199757 [mEh]      43.34333285 [kcal/mol]     181.34850464 [kJ/mol]
      Exch10                       62.79402653 [mEh]      39.40384654 [kcal/mol]     164.86569394 [kJ/mol]
      Exch10(S^2)                  61.45610647 [mEh]      38.56428903 [kcal/mol]     161.35298531 [kJ/mol]
      Exch11(S^2)                   0.65077788 [mEh]       0.40836928 [kcal/mol]       1.70861708 [kJ/mol]
      Exch12(S^2)                   5.62719317 [mEh]       3.53111702 [kcal/mol]      14.77419363 [kJ/mol]

    Induction                     -26.26243343 [mEh]     -16.47992578 [kcal/mol]     -68.95200948 [kJ/mol]
      Ind20,r                     -31.01455923 [mEh]     -19.46192974 [kcal/mol]     -81.42871403 [kJ/mol]
      Ind22                        -3.49660908 [mEh]      -2.19415532 [kcal/mol]      -9.18034587 [kJ/mol]
      Exch-Ind20,r                 17.37110926 [mEh]      10.90053563 [kcal/mol]      45.60784108 [kJ/mol]
      Exch-Ind22                    1.95843436 [mEh]       1.22893611 [kcal/mol]       5.14186869 [kJ/mol]
      delta HF,r (2)              -11.08080874 [mEh]      -6.95331246 [kcal/mol]     -29.09265935 [kJ/mol]

    Dispersion                    -17.26186013 [mEh]     -10.83198077 [kcal/mol]     -45.32100754 [kJ/mol]
      Disp20                      -19.53868644 [mEh]     -12.26071084 [kcal/mol]     -51.29881417 [kJ/mol]
      Disp21                        1.50524658 [mEh]       0.94455649 [kcal/mol]       3.95202435 [kJ/mol]
      Disp22 (SDQ)                  0.05642175 [mEh]       0.03540518 [kcal/mol]       0.14813528 [kJ/mol]
      Disp22 (T)                   -2.99929506 [mEh]      -1.88208607 [kcal/mol]      -7.87464810 [kJ/mol]
      Est. Disp22 (T)              -3.42431638 [mEh]      -2.14879097 [kcal/mol]      -8.99054141 [kJ/mol]
      Exch-Disp20                   4.13947435 [mEh]       2.59755937 [kcal/mol]      10.86818842 [kJ/mol]

  Total HF                        -15.47058345 [mEh]      -9.70793768 [kcal/mol]     -40.61801125 [kJ/mol]
  Total SAPT0                     -30.86979553 [mEh]     -19.37108915 [kcal/mol]     -81.04863700 [kJ/mol]
  Total SAPT2                     -25.55956208 [mEh]     -16.03886735 [kcal/mol]     -67.10662098 [kJ/mol]
  Total SAPT2+                    -27.42221013 [mEh]     -17.20769665 [kcal/mol]     -71.99700277 [kJ/mol]

  Special recipe for scaled SAPT0 (see Manual):
    Electrostatics sSAPT0         -53.54035127 [mEh]     -33.59707765 [kcal/mol]    -140.57017288 [kJ/mol]
    Exchange sSAPT0                62.79402653 [mEh]      39.40384654 [kcal/mol]     164.86569394 [kJ/mol]
    Induction sSAPT0              -23.56485586 [mEh]     -14.78717030 [kcal/mol]     -61.86952055 [kJ/mol]
    Dispersion sSAPT0             -15.12293045 [mEh]      -9.48978213 [kcal/mol]     -39.70524843 [kJ/mol]
  Total sSAPT0                    -29.43411105 [mEh]     -18.47018354 [kcal/mol]     -77.27924792 [kJ/mol]
  --------------------------------------------------------------------------------------------------------

*** tstop() called on node54.bme.utexas.edu at Mon Sep  9 17:00:54 2019
Module time:
	user time   =    2871.97 seconds =      47.87 minutes
	system time =      59.10 seconds =       0.98 minutes
	total time  =        753 seconds =      12.55 minutes
Total time:
	user time   =    3027.80 seconds =      50.46 minutes
	system time =      62.15 seconds =       1.04 minutes
	total time  =        796 seconds =      13.27 minutes

    Psi4 stopped on: Monday, 09 September 2019 05:00PM
    Psi4 wall time for execution: 0:13:16.00

*** Psi4 exiting successfully. Buy a developer a beer!
