
    -----------------------------------------------------------------------
          Psi4: An Open-Source Ab Initio Electronic Structure Package
                               Psi4 1.3.2 release

                         Git: Rev {HEAD} ecbda83 


    R. M. Parrish, L. A. Burns, D. G. A. Smith, A. C. Simmonett,
    A. E. DePrince III, E. G. Hohenstein, U. Bozkaya, A. Yu. Sokolov,
    R. Di Remigio, R. M. Richard, J. F. Gonthier, A. M. James,
    H. R. McAlexander, A. Kumar, M. Saitow, X. Wang, B. P. Pritchard,
    P. Verma, H. F. Schaefer III, K. Patkowski, R. A. King, E. F. Valeev,
    F. A. Evangelista, J. M. Turney, T. D. Crawford, and C. D. Sherrill,
    J. Chem. Theory Comput. 13(7) pp 3185--3197 (2017).
    (doi: 10.1021/acs.jctc.7b00174)


                         Additional Contributions by
    P. Kraus, H. Kruse, M. H. Lechner, M. C. Schieber, R. A. Shaw,
    A. Alenaizan, R. Galvelis, Z. L. Glick, S. Lehtola, and J. P. Misiewicz

    -----------------------------------------------------------------------


    Psi4 started on: Tuesday, 10 September 2019 12:21PM

    Process ID: 50145
    Host:       node51.bme.utexas.edu
    PSIDATADIR: /home/xy3866/psi4conda/share/psi4
    Memory:     500.0 MiB
    Threads:    4
    
  ==> Input File <==

--------------------------------------------------------------------------
#psi4
#
memory 32 gb

molecule  {
0 1
  C        2.0083120    -0.3372920     0.0000040
  H        3.1030340    -0.4288200    -0.0000030
  O        1.2864570    -1.3299810     0.0000000
  N        1.5810970     0.9343630     0.0000010
  H        0.5827550     1.1459700     0.0000010
  H        2.3955457     1.6588981    -0.0000030
--
0 1
  C       -1.8649343     0.3175111     0.0000010
  H       -2.9596563     0.4090391    -0.0000010
  O       -1.1430793     1.3102001     0.0000000
  N       -1.4377193    -0.9541439     0.0000000
  H       -0.4393773    -1.1657509     0.0000000
  H       -2.1087903    -1.6984599    -0.0000010
units angstrom
no_reorient  #important for SAPT in psi4, default
symmetry c1  #important for SAPT in psi4, default
}

set {
basis aug-cc-pVTZ
scf_type DF
freeze_core True
}
energy('sapt2+')
--------------------------------------------------------------------------

  Memory set to  29.802 GiB by Python driver.

  //>>>>>>>>>>>>>>>>>>>>>>>>>>>>>>>>>>>//
  //              Dimer HF             //
  //<<<<<<<<<<<<<<<<<<<<<<<<<<<<<<<<<<<//


*** tstart() called on node51.bme.utexas.edu
*** at Tue Sep 10 12:21:43 2019

   => Loading Basis Set <=

    Name: AUG-CC-PVTZ
    Role: ORBITAL
    Keyword: BASIS
    atoms 1, 7             entry C          line   235 file /home/xy3866/psi4conda/share/psi4/basis/aug-cc-pvtz.gbs 
    atoms 2, 5-6, 8, 11-12 entry H          line    36 file /home/xy3866/psi4conda/share/psi4/basis/aug-cc-pvtz.gbs 
    atoms 3, 9             entry O          line   327 file /home/xy3866/psi4conda/share/psi4/basis/aug-cc-pvtz.gbs 
    atoms 4, 10            entry N          line   281 file /home/xy3866/psi4conda/share/psi4/basis/aug-cc-pvtz.gbs 


         ---------------------------------------------------------
                                   SCF
               by Justin Turney, Rob Parrish, Andy Simmonett
                          and Daniel G. A. Smith
                              RHF Reference
                        4 Threads,  30517 MiB Core
         ---------------------------------------------------------

  ==> Geometry <==

    Molecular point group: c1
    Full point group: C1

    Geometry (in Angstrom), charge = 0, multiplicity = 1:

       Center              X                  Y                   Z               Mass       
    ------------   -----------------  -----------------  -----------------  -----------------
         C            1.935018363936    -0.327180147978     0.000003256485    12.000000000000
         H            3.029740363936    -0.418708147978    -0.000003743515     1.007825032230
         O            1.213163363936    -1.319869147978    -0.000000743515    15.994914619570
         N            1.507803363936     0.944474852022     0.000000256485    14.003074004430
         H            0.509461363936     1.156081852022     0.000000256485     1.007825032230
         H            2.322252063936     1.669009952022    -0.000003743515     1.007825032230
         C           -1.938227936064     0.327622952022     0.000000256485    12.000000000000
         H           -3.032949936064     0.419150952022    -0.000001743515     1.007825032230
         O           -1.216372936064     1.320311952022    -0.000000743515    15.994914619570
         N           -1.511012936064    -0.944032047978    -0.000000743515    14.003074004430
         H           -0.512670936064    -1.155639047978    -0.000000743515     1.007825032230
         H           -2.182083936064    -1.688348047978    -0.000001743515     1.007825032230

  Running in c1 symmetry.

  Rotational constants: A =      0.18923  B =      0.07228  C =      0.05230 [cm^-1]
  Rotational constants: A =   5673.02936  B =   2166.77687  C =   1567.91998 [MHz]
  Nuclear repulsion =  233.349412925022961

  Charge       = 0
  Multiplicity = 1
  Electrons    = 48
  Nalpha       = 24
  Nbeta        = 24

  ==> Algorithm <==

  SCF Algorithm Type is DF.
  DIIS enabled.
  MOM disabled.
  Fractional occupation disabled.
  Guess Type is SAD.
  Energy threshold   = 1.00e-08
  Density threshold  = 1.00e-08
  Integral threshold = 0.00e+00

  ==> Primary Basis <==

  Basis Set: AUG-CC-PVTZ
    Blend: AUG-CC-PVTZ
    Number of shells: 138
    Number of basis function: 414
    Number of Cartesian functions: 480
    Spherical Harmonics?: true
    Max angular momentum: 3

   => Loading Basis Set <=

    Name: (AUG-CC-PVTZ AUX)
    Role: JKFIT
    Keyword: DF_BASIS_SCF
    atoms 1, 7             entry C          line   162 file /home/xy3866/psi4conda/share/psi4/basis/aug-cc-pvtz-jkfit.gbs 
    atoms 2, 5-6, 8, 11-12 entry H          line    70 file /home/xy3866/psi4conda/share/psi4/basis/aug-cc-pvtz-jkfit.gbs 
    atoms 3, 9             entry O          line   286 file /home/xy3866/psi4conda/share/psi4/basis/aug-cc-pvtz-jkfit.gbs 
    atoms 4, 10            entry N          line   224 file /home/xy3866/psi4conda/share/psi4/basis/aug-cc-pvtz-jkfit.gbs 

  ==> Pre-Iterations <==

   -------------------------------------------------------
    Irrep   Nso     Nmo     Nalpha   Nbeta   Ndocc  Nsocc
   -------------------------------------------------------
     A        414     414       0       0       0       0
   -------------------------------------------------------
    Total     414     414      24      24      24       0
   -------------------------------------------------------

  ==> Integral Setup <==

  ==> DiskDFJK: Density-Fitted J/K Matrices <==

    J tasked:                  Yes
    K tasked:                  Yes
    wK tasked:                  No
    OpenMP threads:              4
    Integrals threads:           4
    Memory [MiB]:            22888
    Algorithm:                Core
    Integral Cache:           SAVE
    Schwarz Cutoff:          1E-12
    Fitting Condition:       1E-10

   => Auxiliary Basis Set <=

  Basis Set: (AUG-CC-PVTZ AUX)
    Blend: AUG-CC-PVTZ-JKFIT
    Number of shells: 264
    Number of basis function: 900
    Number of Cartesian functions: 1116
    Spherical Harmonics?: true
    Max angular momentum: 4

  Minimum eigenvalue in the overlap matrix is 3.1649518937E-05.
  Using Symmetric Orthogonalization.

  SCF Guess: Superposition of Atomic Densities via on-the-fly atomic UHF.

  ==> Iterations <==

                           Total Energy        Delta E     RMS |[F,P]|

   @DF-RHF iter SAD:  -336.66902360784070   -3.36669e+02   0.00000e+00 
   @DF-RHF iter   1:  -337.79955574726722   -1.13053e+00   1.72298e-03 DIIS
   @DF-RHF iter   2:  -337.94690165378222   -1.47346e-01   1.06671e-03 DIIS
   @DF-RHF iter   3:  -338.01134128230893   -6.44396e-02   1.58934e-04 DIIS
   @DF-RHF iter   4:  -338.01369163838359   -2.35036e-03   7.02598e-05 DIIS
   @DF-RHF iter   5:  -338.01415037253042   -4.58734e-04   1.47121e-05 DIIS
   @DF-RHF iter   6:  -338.01419966054391   -4.92880e-05   7.10871e-06 DIIS
   @DF-RHF iter   7:  -338.01421065831607   -1.09978e-05   2.65590e-06 DIIS
   @DF-RHF iter   8:  -338.01421273128904   -2.07297e-06   8.71335e-07 DIIS
   @DF-RHF iter   9:  -338.01421293501170   -2.03723e-07   2.81228e-07 DIIS
   @DF-RHF iter  10:  -338.01421295121270   -1.62010e-08   1.33816e-07 DIIS
   @DF-RHF iter  11:  -338.01421295404106   -2.82836e-09   4.32571e-08 DIIS
   @DF-RHF iter  12:  -338.01421295433403   -2.92971e-10   1.28419e-08 DIIS
   @DF-RHF iter  13:  -338.01421295435364   -1.96110e-11   3.67937e-09 DIIS
  Energy and wave function converged.


  ==> Post-Iterations <==

    Orbital Energies [Eh]
    ---------------------

    Doubly Occupied:                                                      

       1A    -20.531731     2A    -20.529825     3A    -15.584951  
       4A    -15.576640     5A    -11.357615     6A    -11.355186  
       7A     -1.389486     8A     -1.383052     9A     -1.214549  
      10A     -1.202403    11A     -0.862122    12A     -0.827210  
      13A     -0.745444    14A     -0.725914    15A     -0.711299  
      16A     -0.638897    17A     -0.620002    18A     -0.589139  
      19A     -0.576475    20A     -0.566336    21A     -0.457296  
      22A     -0.427616    23A     -0.422121    24A     -0.408914  

    Virtual:                                                              

      25A      0.026924    26A      0.030481    27A      0.043443  
      28A      0.050391    29A      0.060879    30A      0.075433  
      31A      0.085045    32A      0.088793    33A      0.100395  
      34A      0.110943    35A      0.129313    36A      0.132292  
      37A      0.138323    38A      0.139161    39A      0.139751  
      40A      0.148936    41A      0.154599    42A      0.161064  
      43A      0.182517    44A      0.185224    45A      0.186801  
      46A      0.202036    47A      0.224405    48A      0.225004  
      49A      0.230116    50A      0.256033    51A      0.258448  
      52A      0.263070    53A      0.270454    54A      0.272029  
      55A      0.277629    56A      0.290781    57A      0.297030  
      58A      0.299211    59A      0.314362    60A      0.321802  
      61A      0.324278    62A      0.336466    63A      0.337005  
      64A      0.341515    65A      0.360669    66A      0.364051  
      67A      0.382858    68A      0.385635    69A      0.397519  
      70A      0.402067    71A      0.411930    72A      0.415903  
      73A      0.416210    74A      0.428393    75A      0.436343  
      76A      0.447004    77A      0.453927    78A      0.462435  
      79A      0.473883    80A      0.496036    81A      0.497131  
      82A      0.531649    83A      0.533076    84A      0.535831  
      85A      0.540143    86A      0.543024    87A      0.561517  
      88A      0.576932    89A      0.581737    90A      0.591165  
      91A      0.591974    92A      0.605791    93A      0.626151  
      94A      0.632171    95A      0.646245    96A      0.654698  
      97A      0.655027    98A      0.670698    99A      0.681163  
     100A      0.703842   101A      0.717493   102A      0.729044  
     103A      0.741029   104A      0.742240   105A      0.755181  
     106A      0.761384   107A      0.799640   108A      0.812036  
     109A      0.816285   110A      0.829980   111A      0.834985  
     112A      0.838790   113A      0.866640   114A      0.870791  
     115A      0.878276   116A      0.881517   117A      0.905201  
     118A      0.915996   119A      0.921603   120A      0.922151  
     121A      0.924557   122A      0.930374   123A      0.939289  
     124A      0.943429   125A      0.953783   126A      0.966511  
     127A      0.982616   128A      0.993756   129A      1.000121  
     130A      1.006061   131A      1.013880   132A      1.026506  
     133A      1.034812   134A      1.036364   135A      1.045819  
     136A      1.073706   137A      1.082694   138A      1.093805  
     139A      1.103204   140A      1.122198   141A      1.125233  
     142A      1.132931   143A      1.136222   144A      1.137086  
     145A      1.146756   146A      1.152440   147A      1.159027  
     148A      1.174167   149A      1.206531   150A      1.220266  
     151A      1.222207   152A      1.253643   153A      1.269626  
     154A      1.270466   155A      1.274843   156A      1.279191  
     157A      1.292623   158A      1.296739   159A      1.313734  
     160A      1.350406   161A      1.365991   162A      1.372841  
     163A      1.378696   164A      1.391104   165A      1.393197  
     166A      1.432970   167A      1.443455   168A      1.447777  
     169A      1.452824   170A      1.458183   171A      1.466978  
     172A      1.484984   173A      1.486714   174A      1.496226  
     175A      1.498821   176A      1.523141   177A      1.529668  
     178A      1.555333   179A      1.567150   180A      1.595587  
     181A      1.604885   182A      1.619586   183A      1.622302  
     184A      1.675774   185A      1.695357   186A      1.703523  
     187A      1.716334   188A      1.722774   189A      1.741469  
     190A      1.742728   191A      1.767958   192A      1.768679  
     193A      1.806359   194A      1.806989   195A      1.847474  
     196A      1.865174   197A      1.876972   198A      1.888030  
     199A      1.935153   200A      1.967457   201A      1.996314  
     202A      2.009039   203A      2.046996   204A      2.067812  
     205A      2.078550   206A      2.086350   207A      2.088341  
     208A      2.099310   209A      2.113659   210A      2.132089  
     211A      2.145972   212A      2.186986   213A      2.208978  
     214A      2.211816   215A      2.219979   216A      2.254292  
     217A      2.258528   218A      2.289269   219A      2.305611  
     220A      2.373652   221A      2.385936   222A      2.405080  
     223A      2.418965   224A      2.430603   225A      2.439744  
     226A      2.479244   227A      2.487775   228A      2.492183  
     229A      2.540889   230A      2.560308   231A      2.563915  
     232A      2.567720   233A      2.569537   234A      2.595178  
     235A      2.597980   236A      2.628471   237A      2.642758  
     238A      2.643033   239A      2.658279   240A      2.691408  
     241A      2.694846   242A      2.732085   243A      2.752441  
     244A      2.775678   245A      2.780101   246A      2.782066  
     247A      2.814969   248A      2.838246   249A      2.845445  
     250A      2.862579   251A      2.941016   252A      2.953755  
     253A      2.954497   254A      2.964942   255A      3.058301  
     256A      3.102843   257A      3.121188   258A      3.143325  
     259A      3.187727   260A      3.189852   261A      3.199553  
     262A      3.281462   263A      3.285567   264A      3.362592  
     265A      3.381825   266A      3.406172   267A      3.423637  
     268A      3.435812   269A      3.444452   270A      3.469643  
     271A      3.578138   272A      3.587610   273A      3.633863  
     274A      3.638273   275A      3.707026   276A      3.711050  
     277A      3.722393   278A      3.732115   279A      3.793356  
     280A      3.806421   281A      3.847205   282A      3.861366  
     283A      3.919381   284A      3.957109   285A      4.025888  
     286A      4.076824   287A      4.096258   288A      4.096934  
     289A      4.105338   290A      4.131803   291A      4.155583  
     292A      4.177399   293A      4.178836   294A      4.204316  
     295A      4.212996   296A      4.230071   297A      4.243936  
     298A      4.255561   299A      4.263469   300A      4.281974  
     301A      4.292964   302A      4.349264   303A      4.355417  
     304A      4.385963   305A      4.391619   306A      4.396984  
     307A      4.420953   308A      4.433821   309A      4.443696  
     310A      4.457806   311A      4.484982   312A      4.532879  
     313A      4.537711   314A      4.575965   315A      4.580958  
     316A      4.642290   317A      4.648281   318A      4.703129  
     319A      4.704461   320A      4.741212   321A      4.796136  
     322A      4.820345   323A      4.853880   324A      4.856838  
     325A      4.877018   326A      4.910431   327A      4.926927  
     328A      4.934003   329A      4.954926   330A      4.963141  
     331A      4.980370   332A      4.982179   333A      5.056781  
     334A      5.081317   335A      5.116504   336A      5.148121  
     337A      5.190901   338A      5.202765   339A      5.227206  
     340A      5.243084   341A      5.250517   342A      5.252756  
     343A      5.267326   344A      5.319831   345A      5.368118  
     346A      5.426678   347A      5.465623   348A      5.495272  
     349A      5.564559   350A      5.579974   351A      5.598592  
     352A      5.601734   353A      5.617724   354A      5.656868  
     355A      5.680602   356A      5.692561   357A      5.749461  
     358A      5.783688   359A      5.830318   360A      5.867963  
     361A      5.869288   362A      5.898182   363A      5.960081  
     364A      6.065086   365A      6.120923   366A      6.136649  
     367A      6.165845   368A      6.223132   369A      6.226073  
     370A      6.358979   371A      6.380043   372A      6.411477  
     373A      6.475593   374A      6.509131   375A      6.640904  
     376A      6.684830   377A      6.827989   378A      6.863854  
     379A      6.899373   380A      6.913400   381A      6.946136  
     382A      6.975930   383A      7.076343   384A      7.092906  
     385A      7.114805   386A      7.147648   387A      7.167904  
     388A      7.176087   389A      7.178309   390A      7.244259  
     391A      7.307800   392A      7.324809   393A      7.347953  
     394A      7.386059   395A      7.434484   396A      7.495931  
     397A      7.568391   398A      7.634124   399A      7.638879  
     400A      7.652755   401A      7.699992   402A      7.771793  
     403A      7.928047   404A      7.964443   405A      7.980160  
     406A      8.111263   407A      8.396656   408A      8.417575  
     409A     15.899910   410A     15.988860   411A     17.399235  
     412A     17.894239   413A     18.479029   414A     18.920843  

    Final Occupation by Irrep:
              A 
    DOCC [    24 ]

  @DF-RHF Final Energy:  -338.01421295435364

   => Energetics <=

    Nuclear Repulsion Energy =            233.3494129250229605
    One-Electron Energy =                -925.3188088598932382
    Two-Electron Energy =                 353.9551829805166108
    Total Energy =                       -338.0142129543536385

Computation Completed


Properties will be evaluated at   0.000000,   0.000000,   0.000000 [a0]

Properties computed using the SCF density matrix

  Nuclear Dipole Moment: [e a0]
     X:     0.1254      Y:    -0.0173      Z:    -0.0000

  Electronic Dipole Moment: [e a0]
     X:    -0.0907      Y:     0.0108      Z:     0.0000

  Dipole Moment: [e a0]
     X:     0.0347      Y:    -0.0065      Z:    -0.0000     Total:     0.0353

  Dipole Moment: [D]
     X:     0.0881      Y:    -0.0165      Z:    -0.0000     Total:     0.0896


*** tstop() called on node51.bme.utexas.edu at Tue Sep 10 12:22:04 2019
Module time:
	user time   =      74.22 seconds =       1.24 minutes
	system time =       1.59 seconds =       0.03 minutes
	total time  =         21 seconds =       0.35 minutes
Total time:
	user time   =      74.22 seconds =       1.24 minutes
	system time =       1.59 seconds =       0.03 minutes
	total time  =         21 seconds =       0.35 minutes

  //>>>>>>>>>>>>>>>>>>>>>>>>>>>>>>>>>>>//
  //            Monomer A HF           //
  //<<<<<<<<<<<<<<<<<<<<<<<<<<<<<<<<<<<//


*** tstart() called on node51.bme.utexas.edu
*** at Tue Sep 10 12:22:04 2019

   => Loading Basis Set <=

    Name: AUG-CC-PVTZ
    Role: ORBITAL
    Keyword: BASIS
    atoms 1, 7             entry C          line   235 file /home/xy3866/psi4conda/share/psi4/basis/aug-cc-pvtz.gbs 
    atoms 2, 5-6, 8, 11-12 entry H          line    36 file /home/xy3866/psi4conda/share/psi4/basis/aug-cc-pvtz.gbs 
    atoms 3, 9             entry O          line   327 file /home/xy3866/psi4conda/share/psi4/basis/aug-cc-pvtz.gbs 
    atoms 4, 10            entry N          line   281 file /home/xy3866/psi4conda/share/psi4/basis/aug-cc-pvtz.gbs 


         ---------------------------------------------------------
                                   SCF
               by Justin Turney, Rob Parrish, Andy Simmonett
                          and Daniel G. A. Smith
                              RHF Reference
                        4 Threads,  30517 MiB Core
         ---------------------------------------------------------

  ==> Geometry <==

    Molecular point group: c1
    Full point group: C1

    Geometry (in Angstrom), charge = 0, multiplicity = 1:

       Center              X                  Y                   Z               Mass       
    ------------   -----------------  -----------------  -----------------  -----------------
         C            1.935018363936    -0.327180147978     0.000003256485    12.000000000000
         H            3.029740363936    -0.418708147978    -0.000003743515     1.007825032230
         O            1.213163363936    -1.319869147978    -0.000000743515    15.994914619570
         N            1.507803363936     0.944474852022     0.000000256485    14.003074004430
         H            0.509461363936     1.156081852022     0.000000256485     1.007825032230
         H            2.322252063936     1.669009952022    -0.000003743515     1.007825032230
      Gh(C)          -1.938227936064     0.327622952022     0.000000256485    12.000000000000
      Gh(H)          -3.032949936064     0.419150952022    -0.000001743515     1.007825032230
      Gh(O)          -1.216372936064     1.320311952022    -0.000000743515    15.994914619570
      Gh(N)          -1.511012936064    -0.944032047978    -0.000000743515    14.003074004430
      Gh(H)          -0.512670936064    -1.155639047978    -0.000000743515     1.007825032230
      Gh(H)          -2.182083936064    -1.688348047978    -0.000001743515     1.007825032230

  Running in c1 symmetry.

  Rotational constants: A =      0.18923  B =      0.07228  C =      0.05230 [cm^-1]
  Rotational constants: A =   5673.02936  B =   2166.77687  C =   1567.91998 [MHz]
  Nuclear repulsion =   70.835211184501560

  Charge       = 0
  Multiplicity = 1
  Electrons    = 24
  Nalpha       = 12
  Nbeta        = 12

  ==> Algorithm <==

  SCF Algorithm Type is DF.
  DIIS enabled.
  MOM disabled.
  Fractional occupation disabled.
  Guess Type is SAD.
  Energy threshold   = 1.00e-08
  Density threshold  = 1.00e-08
  Integral threshold = 0.00e+00

  ==> Primary Basis <==

  Basis Set: AUG-CC-PVTZ
    Blend: AUG-CC-PVTZ
    Number of shells: 138
    Number of basis function: 414
    Number of Cartesian functions: 480
    Spherical Harmonics?: true
    Max angular momentum: 3

   => Loading Basis Set <=

    Name: (AUG-CC-PVTZ AUX)
    Role: JKFIT
    Keyword: DF_BASIS_SCF
    atoms 1, 7             entry C          line   162 file /home/xy3866/psi4conda/share/psi4/basis/aug-cc-pvtz-jkfit.gbs 
    atoms 2, 5-6, 8, 11-12 entry H          line    70 file /home/xy3866/psi4conda/share/psi4/basis/aug-cc-pvtz-jkfit.gbs 
    atoms 3, 9             entry O          line   286 file /home/xy3866/psi4conda/share/psi4/basis/aug-cc-pvtz-jkfit.gbs 
    atoms 4, 10            entry N          line   224 file /home/xy3866/psi4conda/share/psi4/basis/aug-cc-pvtz-jkfit.gbs 

  ==> Pre-Iterations <==

   -------------------------------------------------------
    Irrep   Nso     Nmo     Nalpha   Nbeta   Ndocc  Nsocc
   -------------------------------------------------------
     A        414     414       0       0       0       0
   -------------------------------------------------------
    Total     414     414      12      12      12       0
   -------------------------------------------------------

  ==> Integral Setup <==

  ==> DiskDFJK: Density-Fitted J/K Matrices <==

    J tasked:                  Yes
    K tasked:                  Yes
    wK tasked:                  No
    OpenMP threads:              4
    Integrals threads:           4
    Memory [MiB]:            22888
    Algorithm:                Core
    Integral Cache:           LOAD
    Schwarz Cutoff:          1E-12
    Fitting Condition:       1E-10

   => Auxiliary Basis Set <=

  Basis Set: (AUG-CC-PVTZ AUX)
    Blend: AUG-CC-PVTZ-JKFIT
    Number of shells: 264
    Number of basis function: 900
    Number of Cartesian functions: 1116
    Spherical Harmonics?: true
    Max angular momentum: 4

  Minimum eigenvalue in the overlap matrix is 3.1649518937E-05.
  Using Symmetric Orthogonalization.

  SCF Guess: Superposition of Atomic Densities via on-the-fly atomic UHF.

  ==> Iterations <==

                           Total Energy        Delta E     RMS |[F,P]|

   @DF-RHF iter SAD:  -168.16332602407465   -1.68163e+02   0.00000e+00 
   @DF-RHF iter   1:  -168.86744676219752   -7.04121e-01   1.28855e-03 DIIS
   @DF-RHF iter   2:  -168.94539310731506   -7.79463e-02   9.00126e-04 DIIS
   @DF-RHF iter   3:  -168.99131801562598   -4.59249e-02   1.26181e-04 DIIS
   @DF-RHF iter   4:  -168.99283617019830   -1.51815e-03   5.62774e-05 DIIS
   @DF-RHF iter   5:  -168.99317101740442   -3.34847e-04   1.21440e-05 DIIS
   @DF-RHF iter   6:  -168.99320942433431   -3.84069e-05   5.85721e-06 DIIS
   @DF-RHF iter   7:  -168.99321738428583   -7.95995e-06   2.29934e-06 DIIS
   @DF-RHF iter   8:  -168.99321868668338   -1.30240e-06   6.98155e-07 DIIS
   @DF-RHF iter   9:  -168.99321881085390   -1.24171e-07   1.92586e-07 DIIS
   @DF-RHF iter  10:  -168.99321882095333   -1.00994e-08   4.62645e-08 DIIS
   @DF-RHF iter  11:  -168.99321882142675   -4.73420e-10   8.39028e-09 DIIS
  Energy and wave function converged.


  ==> Post-Iterations <==

    Orbital Energies [Eh]
    ---------------------

    Doubly Occupied:                                                      

       1A    -20.525633     2A    -15.609662     3A    -11.354460  
       4A     -1.375548     5A     -1.218036     6A     -0.848520  
       7A     -0.733962     8A     -0.678499     9A     -0.597475  
      10A     -0.570846    11A     -0.433552    12A     -0.420487  

    Virtual:                                                              

      13A      0.018366    14A      0.029109    15A      0.040073  
      16A      0.055595    17A      0.056396    18A      0.069445  
      19A      0.085798    20A      0.086681    21A      0.089853  
      22A      0.097365    23A      0.110933    24A      0.123351  
      25A      0.129774    26A      0.133586    27A      0.139713  
      28A      0.148213    29A      0.153634    30A      0.160480  
      31A      0.171313    32A      0.180490    33A      0.196495  
      34A      0.201172    35A      0.202935    36A      0.218756  
      37A      0.224677    38A      0.249757    39A      0.250996  
      40A      0.257691    41A      0.258707    42A      0.271680  
      43A      0.276533    44A      0.289359    45A      0.301717  
      46A      0.303305    47A      0.307693    48A      0.318296  
      49A      0.329952    50A      0.333245    51A      0.344088  
      52A      0.354577    53A      0.357779    54A      0.366502  
      55A      0.370623    56A      0.386606    57A      0.391041  
      58A      0.396753    59A      0.401315    60A      0.403922  
      61A      0.410810    62A      0.421477    63A      0.427741  
      64A      0.449504    65A      0.450334    66A      0.458424  
      67A      0.469131    68A      0.498754    69A      0.498894  
      70A      0.501258    71A      0.528722    72A      0.532768  
      73A      0.544306    74A      0.549986    75A      0.563930  
      76A      0.571356    77A      0.574972    78A      0.587701  
      79A      0.627563    80A      0.628278    81A      0.641215  
      82A      0.647063    83A      0.647617    84A      0.668382  
      85A      0.690930    86A      0.692982    87A      0.705928  
      88A      0.725777    89A      0.732965    90A      0.741199  
      91A      0.750904    92A      0.759049    93A      0.762097  
      94A      0.784203    95A      0.805595    96A      0.821629  
      97A      0.824871    98A      0.844848    99A      0.857064  
     100A      0.861531   101A      0.866053   102A      0.883343  
     103A      0.886267   104A      0.897334   105A      0.905435  
     106A      0.907522   107A      0.927220   108A      0.927254  
     109A      0.938841   110A      0.942044   111A      0.950060  
     112A      0.957396   113A      0.979368   114A      0.984036  
     115A      0.988847   116A      1.006737   117A      1.014903  
     118A      1.016745   119A      1.022924   120A      1.045289  
     121A      1.062691   122A      1.062980   123A      1.071844  
     124A      1.078246   125A      1.091978   126A      1.093243  
     127A      1.102529   128A      1.109042   129A      1.128989  
     130A      1.135001   131A      1.141175   132A      1.156230  
     133A      1.173726   134A      1.173761   135A      1.187414  
     136A      1.207553   137A      1.217099   138A      1.245019  
     139A      1.258919   140A      1.265341   141A      1.281286  
     142A      1.283559   143A      1.298804   144A      1.305094  
     145A      1.322748   146A      1.340749   147A      1.346921  
     148A      1.365515   149A      1.377147   150A      1.394685  
     151A      1.417707   152A      1.426216   153A      1.435642  
     154A      1.455031   155A      1.474437   156A      1.478382  
     157A      1.486742   158A      1.505560   159A      1.513603  
     160A      1.519365   161A      1.547056   162A      1.552079  
     163A      1.586395   164A      1.607703   165A      1.621341  
     166A      1.645472   167A      1.649774   168A      1.655707  
     169A      1.678100   170A      1.682916   171A      1.696292  
     172A      1.698412   173A      1.713362   174A      1.740072  
     175A      1.742360   176A      1.757910   177A      1.759628  
     178A      1.781376   179A      1.783437   180A      1.850501  
     181A      1.850714   182A      1.861795   183A      1.875669  
     184A      1.880395   185A      1.902567   186A      1.922481  
     187A      1.940651   188A      1.965441   189A      2.002112  
     190A      2.008272   191A      2.044771   192A      2.056890  
     193A      2.084311   194A      2.086075   195A      2.090149  
     196A      2.098988   197A      2.115529   198A      2.139460  
     199A      2.173913   200A      2.196348   201A      2.239936  
     202A      2.259102   203A      2.277121   204A      2.334034  
     205A      2.340916   206A      2.373711   207A      2.377781  
     208A      2.380221   209A      2.403702   210A      2.428521  
     211A      2.454484   212A      2.481444   213A      2.484986  
     214A      2.522133   215A      2.537142   216A      2.547044  
     217A      2.559348   218A      2.595259   219A      2.611650  
     220A      2.648938   221A      2.657595   222A      2.669669  
     223A      2.691122   224A      2.699441   225A      2.727049  
     226A      2.729220   227A      2.744054   228A      2.762951  
     229A      2.769398   230A      2.802732   231A      2.811892  
     232A      2.822658   233A      2.839451   234A      2.885276  
     235A      2.918858   236A      2.936111   237A      2.937134  
     238A      2.967535   239A      2.977081   240A      2.996735  
     241A      3.018015   242A      3.039670   243A      3.086688  
     244A      3.120019   245A      3.144397   246A      3.188859  
     247A      3.200089   248A      3.203615   249A      3.208396  
     250A      3.252287   251A      3.297740   252A      3.357334  
     253A      3.367605   254A      3.429077   255A      3.444729  
     256A      3.455093   257A      3.538040   258A      3.547315  
     259A      3.560207   260A      3.575574   261A      3.609011  
     262A      3.619027   263A      3.700822   264A      3.765365  
     265A      3.768521   266A      3.835486   267A      3.837777  
     268A      3.892966   269A      3.927442   270A      3.992194  
     271A      4.057496   272A      4.067088   273A      4.092805  
     274A      4.105452   275A      4.118034   276A      4.133498  
     277A      4.159732   278A      4.187340   279A      4.190520  
     280A      4.237383   281A      4.251129   282A      4.261709  
     283A      4.264588   284A      4.343363   285A      4.376758  
     286A      4.415955   287A      4.427838   288A      4.445360  
     289A      4.479127   290A      4.503123   291A      4.530237  
     292A      4.565591   293A      4.598346   294A      4.626712  
     295A      4.636115   296A      4.665666   297A      4.692340  
     298A      4.731597   299A      4.782019   300A      4.802368  
     301A      4.804577   302A      4.826470   303A      4.839897  
     304A      4.864750   305A      4.884346   306A      4.918476  
     307A      4.934227   308A      4.960203   309A      4.989864  
     310A      5.008042   311A      5.014745   312A      5.024183  
     313A      5.053111   314A      5.091712   315A      5.102948  
     316A      5.165173   317A      5.172219   318A      5.216321  
     319A      5.235800   320A      5.238487   321A      5.246042  
     322A      5.322349   323A      5.333503   324A      5.352660  
     325A      5.376160   326A      5.396432   327A      5.412688  
     328A      5.431727   329A      5.485968   330A      5.490327  
     331A      5.563394   332A      5.584708   333A      5.602949  
     334A      5.617005   335A      5.661376   336A      5.690531  
     337A      5.719638   338A      5.818154   339A      5.823469  
     340A      5.857511   341A      5.920253   342A      5.947462  
     343A      5.952751   344A      6.026587   345A      6.087927  
     346A      6.161107   347A      6.165535   348A      6.214096  
     349A      6.242990   350A      6.321637   351A      6.385051  
     352A      6.511887   353A      6.610601   354A      6.616653  
     355A      6.647904   356A      6.714203   357A      6.718215  
     358A      6.749635   359A      6.803201   360A      6.832029  
     361A      6.893703   362A      6.910532   363A      6.966921  
     364A      7.073499   365A      7.145307   366A      7.145741  
     367A      7.193839   368A      7.220651   369A      7.329410  
     370A      7.361089   371A      7.370255   372A      7.418891  
     373A      7.522014   374A      7.560668   375A      7.632307  
     376A      7.664440   377A      7.725632   378A      7.739296  
     379A      7.758595   380A      7.789983   381A      7.815395  
     382A      7.918087   383A      7.969011   384A      8.000409  
     385A      8.025895   386A      8.085642   387A      8.150808  
     388A      8.162964   389A      8.195405   390A      8.539517  
     391A      8.677802   392A      8.868954   393A      9.165040  
     394A      9.453359   395A      9.561599   396A      9.797078  
     397A      9.859008   398A     10.075192   399A     10.156342  
     400A     10.571915   401A     10.641939   402A     11.220173  
     403A     11.763437   404A     11.863085   405A     12.502805  
     406A     12.676023   407A     12.987362   408A     13.984836  
     409A     16.011659   410A     17.467482   411A     18.462868  
     412A     51.494984   413A     61.885171   414A     67.203204  

    Final Occupation by Irrep:
              A 
    DOCC [    12 ]

  @DF-RHF Final Energy:  -168.99321882142675

   => Energetics <=

    Nuclear Repulsion Energy =             70.8352111845015600
    One-Electron Energy =                -370.9234927311638330
    Two-Electron Energy =                 131.0950627252355503
    Total Energy =                       -168.9932188214267512

Computation Completed


Properties will be evaluated at   0.000000,   0.000000,   0.000000 [a0]

Properties computed using the SCF density matrix

  Nuclear Dipole Moment: [e a0]
     X:    71.3022      Y:    -6.6222      Z:     0.0000

  Electronic Dipole Moment: [e a0]
     X:   -70.6375      Y:     8.2611      Z:    -0.0000

  Dipole Moment: [e a0]
     X:     0.6647      Y:     1.6389      Z:    -0.0000     Total:     1.7686

  Dipole Moment: [D]
     X:     1.6896      Y:     4.1657      Z:    -0.0000     Total:     4.4952


*** tstop() called on node51.bme.utexas.edu at Tue Sep 10 12:22:15 2019
Module time:
	user time   =      40.59 seconds =       0.68 minutes
	system time =       0.91 seconds =       0.02 minutes
	total time  =         11 seconds =       0.18 minutes
Total time:
	user time   =     114.83 seconds =       1.91 minutes
	system time =       2.50 seconds =       0.04 minutes
	total time  =         32 seconds =       0.53 minutes

  //>>>>>>>>>>>>>>>>>>>>>>>>>>>>>>>>>>>//
  //            Monomer B HF           //
  //<<<<<<<<<<<<<<<<<<<<<<<<<<<<<<<<<<<//


*** tstart() called on node51.bme.utexas.edu
*** at Tue Sep 10 12:22:15 2019

   => Loading Basis Set <=

    Name: AUG-CC-PVTZ
    Role: ORBITAL
    Keyword: BASIS
    atoms 1, 7             entry C          line   235 file /home/xy3866/psi4conda/share/psi4/basis/aug-cc-pvtz.gbs 
    atoms 2, 5-6, 8, 11-12 entry H          line    36 file /home/xy3866/psi4conda/share/psi4/basis/aug-cc-pvtz.gbs 
    atoms 3, 9             entry O          line   327 file /home/xy3866/psi4conda/share/psi4/basis/aug-cc-pvtz.gbs 
    atoms 4, 10            entry N          line   281 file /home/xy3866/psi4conda/share/psi4/basis/aug-cc-pvtz.gbs 


         ---------------------------------------------------------
                                   SCF
               by Justin Turney, Rob Parrish, Andy Simmonett
                          and Daniel G. A. Smith
                              RHF Reference
                        4 Threads,  30517 MiB Core
         ---------------------------------------------------------

  ==> Geometry <==

    Molecular point group: c1
    Full point group: C1

    Geometry (in Angstrom), charge = 0, multiplicity = 1:

       Center              X                  Y                   Z               Mass       
    ------------   -----------------  -----------------  -----------------  -----------------
      Gh(C)           1.935018363936    -0.327180147978     0.000003256485    12.000000000000
      Gh(H)           3.029740363936    -0.418708147978    -0.000003743515     1.007825032230
      Gh(O)           1.213163363936    -1.319869147978    -0.000000743515    15.994914619570
      Gh(N)           1.507803363936     0.944474852022     0.000000256485    14.003074004430
      Gh(H)           0.509461363936     1.156081852022     0.000000256485     1.007825032230
      Gh(H)           2.322252063936     1.669009952022    -0.000003743515     1.007825032230
         C           -1.938227936064     0.327622952022     0.000000256485    12.000000000000
         H           -3.032949936064     0.419150952022    -0.000001743515     1.007825032230
         O           -1.216372936064     1.320311952022    -0.000000743515    15.994914619570
         N           -1.511012936064    -0.944032047978    -0.000000743515    14.003074004430
         H           -0.512670936064    -1.155639047978    -0.000000743515     1.007825032230
         H           -2.182083936064    -1.688348047978    -0.000001743515     1.007825032230

  Running in c1 symmetry.

  Rotational constants: A =      0.18923  B =      0.07228  C =      0.05230 [cm^-1]
  Rotational constants: A =   5673.02936  B =   2166.77687  C =   1567.91998 [MHz]
  Nuclear repulsion =   71.161114512123262

  Charge       = 0
  Multiplicity = 1
  Electrons    = 24
  Nalpha       = 12
  Nbeta        = 12

  ==> Algorithm <==

  SCF Algorithm Type is DF.
  DIIS enabled.
  MOM disabled.
  Fractional occupation disabled.
  Guess Type is SAD.
  Energy threshold   = 1.00e-08
  Density threshold  = 1.00e-08
  Integral threshold = 0.00e+00

  ==> Primary Basis <==

  Basis Set: AUG-CC-PVTZ
    Blend: AUG-CC-PVTZ
    Number of shells: 138
    Number of basis function: 414
    Number of Cartesian functions: 480
    Spherical Harmonics?: true
    Max angular momentum: 3

   => Loading Basis Set <=

    Name: (AUG-CC-PVTZ AUX)
    Role: JKFIT
    Keyword: DF_BASIS_SCF
    atoms 1, 7             entry C          line   162 file /home/xy3866/psi4conda/share/psi4/basis/aug-cc-pvtz-jkfit.gbs 
    atoms 2, 5-6, 8, 11-12 entry H          line    70 file /home/xy3866/psi4conda/share/psi4/basis/aug-cc-pvtz-jkfit.gbs 
    atoms 3, 9             entry O          line   286 file /home/xy3866/psi4conda/share/psi4/basis/aug-cc-pvtz-jkfit.gbs 
    atoms 4, 10            entry N          line   224 file /home/xy3866/psi4conda/share/psi4/basis/aug-cc-pvtz-jkfit.gbs 

  ==> Pre-Iterations <==

   -------------------------------------------------------
    Irrep   Nso     Nmo     Nalpha   Nbeta   Ndocc  Nsocc
   -------------------------------------------------------
     A        414     414       0       0       0       0
   -------------------------------------------------------
    Total     414     414      12      12      12       0
   -------------------------------------------------------

  ==> Integral Setup <==

  ==> DiskDFJK: Density-Fitted J/K Matrices <==

    J tasked:                  Yes
    K tasked:                  Yes
    wK tasked:                  No
    OpenMP threads:              4
    Integrals threads:           4
    Memory [MiB]:            22888
    Algorithm:                Core
    Integral Cache:           LOAD
    Schwarz Cutoff:          1E-12
    Fitting Condition:       1E-10

   => Auxiliary Basis Set <=

  Basis Set: (AUG-CC-PVTZ AUX)
    Blend: AUG-CC-PVTZ-JKFIT
    Number of shells: 264
    Number of basis function: 900
    Number of Cartesian functions: 1116
    Spherical Harmonics?: true
    Max angular momentum: 4

  Minimum eigenvalue in the overlap matrix is 3.1649518937E-05.
  Using Symmetric Orthogonalization.

  SCF Guess: Superposition of Atomic Densities via on-the-fly atomic UHF.

  ==> Iterations <==

                           Total Energy        Delta E     RMS |[F,P]|

   @DF-RHF iter SAD:  -168.20327175713084   -1.68203e+02   0.00000e+00 
   @DF-RHF iter   1:  -168.87969094420109   -6.76419e-01   1.29326e-03 DIIS
   @DF-RHF iter   2:  -168.95782678435131   -7.81358e-02   8.83318e-04 DIIS
   @DF-RHF iter   3:  -169.00154596197024   -4.37192e-02   1.26828e-04 DIIS
   @DF-RHF iter   4:  -169.00298606452532   -1.44010e-03   5.48112e-05 DIIS
   @DF-RHF iter   5:  -169.00328948060653   -3.03416e-04   1.09766e-05 DIIS
   @DF-RHF iter   6:  -169.00331949859685   -3.00180e-05   5.23349e-06 DIIS
   @DF-RHF iter   7:  -169.00332581014942   -6.31155e-06   2.10879e-06 DIIS
   @DF-RHF iter   8:  -169.00332691965332   -1.10950e-06   6.37138e-07 DIIS
   @DF-RHF iter   9:  -169.00332702363261   -1.03979e-07   1.75766e-07 DIIS
   @DF-RHF iter  10:  -169.00332703179623   -8.16362e-09   4.34814e-08 DIIS
   @DF-RHF iter  11:  -169.00332703220411   -4.07880e-10   7.78569e-09 DIIS
  Energy and wave function converged.


  ==> Post-Iterations <==

    Orbital Energies [Eh]
    ---------------------

    Doubly Occupied:                                                      

       1A    -20.526930     2A    -15.602082     3A    -11.356543  
       4A     -1.376920     5A     -1.227364     6A     -0.854899  
       7A     -0.756198     8A     -0.677328     9A     -0.603156  
      10A     -0.571934    11A     -0.435225    12A     -0.422122  

    Virtual:                                                              

      13A      0.018570    14A      0.029550    15A      0.039984  
      16A      0.055573    17A      0.056499    18A      0.069390  
      19A      0.085878    20A      0.086811    21A      0.089941  
      22A      0.097582    23A      0.110774    24A      0.124937  
      25A      0.129301    26A      0.133862    27A      0.139921  
      28A      0.148357    29A      0.153284    30A      0.160283  
      31A      0.173886    32A      0.180084    33A      0.196157  
      34A      0.203224    35A      0.204456    36A      0.218604  
      37A      0.224453    38A      0.249625    39A      0.251350  
      40A      0.258880    41A      0.259212    42A      0.271144  
      43A      0.280332    44A      0.289470    45A      0.301597  
      46A      0.304893    47A      0.308775    48A      0.318221  
      49A      0.331528    50A      0.333851    51A      0.344810  
      52A      0.351898    53A      0.360848    54A      0.368817  
      55A      0.369251    56A      0.388995    57A      0.390041  
      58A      0.398783    59A      0.400147    60A      0.407072  
      61A      0.410495    62A      0.423105    63A      0.429506  
      64A      0.451566    65A      0.452879    66A      0.454551  
      67A      0.473250    68A      0.499876    69A      0.500066  
      70A      0.501063    71A      0.530403    72A      0.535594  
      73A      0.542759    74A      0.544197    75A      0.562705  
      76A      0.569305    77A      0.571114    78A      0.586477  
      79A      0.621546    80A      0.629811    81A      0.639289  
      82A      0.654433    83A      0.655197    84A      0.668765  
      85A      0.690779    86A      0.693679    87A      0.704195  
      88A      0.725228    89A      0.729902    90A      0.742847  
      91A      0.751206    92A      0.754375    93A      0.759396  
      94A      0.786335    95A      0.808317    96A      0.821302  
      97A      0.833543    98A      0.846985    99A      0.857167  
     100A      0.859895   101A      0.867788   102A      0.884817  
     103A      0.886447   104A      0.899689   105A      0.904890  
     106A      0.912149   107A      0.925232   108A      0.930839  
     109A      0.937824   110A      0.944100   111A      0.953731  
     112A      0.959520   113A      0.984303   114A      0.985145  
     115A      0.991223   116A      1.006193   117A      1.014541  
     118A      1.017974   119A      1.028429   120A      1.052189  
     121A      1.065417   122A      1.074264   123A      1.077845  
     124A      1.082426   125A      1.086842   126A      1.094053  
     127A      1.101135   128A      1.107819   129A      1.130365  
     130A      1.135610   131A      1.140619   132A      1.160440  
     133A      1.167951   134A      1.169057   135A      1.180276  
     136A      1.198995   137A      1.215699   138A      1.234760  
     139A      1.262819   140A      1.263343   141A      1.281015  
     142A      1.290851   143A      1.295178   144A      1.297281  
     145A      1.318428   146A      1.332470   147A      1.342682  
     148A      1.372562   149A      1.381425   150A      1.396479  
     151A      1.420196   152A      1.429120   153A      1.429418  
     154A      1.456840   155A      1.476476   156A      1.490392  
     157A      1.491160   158A      1.502964   159A      1.511339  
     160A      1.519295   161A      1.538094   162A      1.557428  
     163A      1.603418   164A      1.615880   165A      1.625833  
     166A      1.639220   167A      1.641536   168A      1.655211  
     169A      1.666681   170A      1.682315   171A      1.685947  
     172A      1.692843   173A      1.698300   174A      1.740900  
     175A      1.744578   176A      1.754596   177A      1.761593  
     178A      1.784956   179A      1.787835   180A      1.847654  
     181A      1.852680   182A      1.862202   183A      1.876100  
     184A      1.885556   185A      1.908240   186A      1.927214  
     187A      1.935116   188A      1.965999   189A      1.998394  
     190A      2.032397   191A      2.056756   192A      2.060382  
     193A      2.069373   194A      2.100094   195A      2.109999  
     196A      2.113434   197A      2.119711   198A      2.144236  
     199A      2.182923   200A      2.204190   201A      2.218613  
     202A      2.247287   203A      2.270991   204A      2.321417  
     205A      2.346918   206A      2.352407   207A      2.373945  
     208A      2.385574   209A      2.402374   210A      2.435006  
     211A      2.451720   212A      2.479699   213A      2.490236  
     214A      2.524999   215A      2.530623   216A      2.553155  
     217A      2.587941   218A      2.593777   219A      2.631547  
     220A      2.638321   221A      2.641989   222A      2.672644  
     223A      2.674600   224A      2.689538   225A      2.713536  
     226A      2.723642   227A      2.744578   228A      2.765282  
     229A      2.776556   230A      2.802627   231A      2.805522  
     232A      2.840257   233A      2.842640   234A      2.878896  
     235A      2.911969   236A      2.915119   237A      2.922205  
     238A      2.946348   239A      2.977454   240A      2.983456  
     241A      3.006426   242A      3.026559   243A      3.069391  
     244A      3.103191   245A      3.146121   246A      3.186907  
     247A      3.196163   248A      3.202154   249A      3.202847  
     250A      3.273183   251A      3.313265   252A      3.358182  
     253A      3.362670   254A      3.419466   255A      3.432167  
     256A      3.469096   257A      3.527618   258A      3.545027  
     259A      3.558160   260A      3.597580   261A      3.605320  
     262A      3.626382   263A      3.715329   264A      3.763987  
     265A      3.772294   266A      3.851928   267A      3.884904  
     268A      3.899957   269A      3.944966   270A      3.994863  
     271A      4.061466   272A      4.087936   273A      4.101673  
     274A      4.120113   275A      4.128054   276A      4.157481  
     277A      4.158625   278A      4.189453   279A      4.195833  
     280A      4.235220   281A      4.238775   282A      4.256468  
     283A      4.331425   284A      4.374386   285A      4.379242  
     286A      4.415188   287A      4.437596   288A      4.443076  
     289A      4.505065   290A      4.506679   291A      4.513393  
     292A      4.565327   293A      4.568510   294A      4.601372  
     295A      4.652062   296A      4.698675   297A      4.699015  
     298A      4.734370   299A      4.777405   300A      4.790455  
     301A      4.799239   302A      4.823863   303A      4.856438  
     304A      4.878411   305A      4.889803   306A      4.926679  
     307A      4.946741   308A      4.951502   309A      4.972190  
     310A      5.008705   311A      5.011408   312A      5.051929  
     313A      5.072050   314A      5.089341   315A      5.114115  
     316A      5.126618   317A      5.188244   318A      5.209938  
     319A      5.219498   320A      5.233299   321A      5.278451  
     322A      5.306291   323A      5.334829   324A      5.356419  
     325A      5.371065   326A      5.379639   327A      5.413938  
     328A      5.437847   329A      5.450881   330A      5.484984  
     331A      5.568571   332A      5.579528   333A      5.642722  
     334A      5.657683   335A      5.684592   336A      5.706021  
     337A      5.727093   338A      5.769783   339A      5.819775  
     340A      5.841788   341A      5.916447   342A      5.918882  
     343A      5.970278   344A      6.076739   345A      6.105166  
     346A      6.197564   347A      6.198002   348A      6.212309  
     349A      6.319903   350A      6.375295   351A      6.399997  
     352A      6.505258   353A      6.519657   354A      6.561447  
     355A      6.641215   356A      6.692220   357A      6.705039  
     358A      6.739635   359A      6.800998   360A      6.890345  
     361A      6.912224   362A      6.918912   363A      6.990626  
     364A      7.046623   365A      7.118700   366A      7.142746  
     367A      7.190034   368A      7.207229   369A      7.275501  
     370A      7.334095   371A      7.410634   372A      7.415120  
     373A      7.489679   374A      7.535802   375A      7.638871  
     376A      7.650573   377A      7.721957   378A      7.738313  
     379A      7.756170   380A      7.769978   381A      7.791849  
     382A      7.868954   383A      7.964478   384A      7.999760  
     385A      8.020013   386A      8.080388   387A      8.145954  
     388A      8.152150   389A      8.166936   390A      8.441410  
     391A      8.672025   392A      8.862352   393A      9.042697  
     394A      9.230600   395A      9.546822   396A      9.797873  
     397A      9.855447   398A     10.075325   399A     10.160725  
     400A     10.564146   401A     10.623372   402A     11.315071  
     403A     11.714379   404A     11.864758   405A     12.383372  
     406A     12.608472   407A     12.835415   408A     13.990355  
     409A     15.992890   410A     17.790916   411A     18.900547  
     412A     51.506046   413A     60.607537   414A     67.201635  

    Final Occupation by Irrep:
              A 
    DOCC [    12 ]

  @DF-RHF Final Energy:  -169.00332703220411

   => Energetics <=

    Nuclear Repulsion Energy =             71.1611145121232624
    One-Electron Energy =                -371.5074797054971896
    Two-Electron Energy =                 131.3430381611698010
    Total Energy =                       -169.0033270322041119

Computation Completed


Properties will be evaluated at   0.000000,   0.000000,   0.000000 [a0]

Properties computed using the SCF density matrix

  Nuclear Dipole Moment: [e a0]
     X:   -71.1768      Y:     6.6049      Z:    -0.0000

  Electronic Dipole Moment: [e a0]
     X:    70.5546      Y:    -8.2470      Z:     0.0000

  Dipole Moment: [e a0]
     X:    -0.6222      Y:    -1.6420      Z:    -0.0000     Total:     1.7560

  Dipole Moment: [D]
     X:    -1.5816      Y:    -4.1736      Z:    -0.0000     Total:     4.4633


*** tstop() called on node51.bme.utexas.edu at Tue Sep 10 12:22:27 2019
Module time:
	user time   =      41.44 seconds =       0.69 minutes
	system time =       1.02 seconds =       0.02 minutes
	total time  =         12 seconds =       0.20 minutes
Total time:
	user time   =     156.29 seconds =       2.60 minutes
	system time =       3.52 seconds =       0.06 minutes
	total time  =         44 seconds =       0.73 minutes
  Constructing Basis Sets for SAPT...

   => Loading Basis Set <=

    Name: (AUG-CC-PVTZ AUX)
    Role: RIFIT
    Keyword: DF_BASIS_SAPT
    atoms 1, 7             entry C          line   148 file /home/xy3866/psi4conda/share/psi4/basis/aug-cc-pvtz-ri.gbs 
    atoms 2, 5-6, 8, 11-12 entry H          line    30 file /home/xy3866/psi4conda/share/psi4/basis/aug-cc-pvtz-ri.gbs 
    atoms 3, 9             entry O          line   264 file /home/xy3866/psi4conda/share/psi4/basis/aug-cc-pvtz-ri.gbs 
    atoms 4, 10            entry N          line   206 file /home/xy3866/psi4conda/share/psi4/basis/aug-cc-pvtz-ri.gbs 


  //>>>>>>>>>>>>>>>>>>>>>>>>>>>>>>>>>>>//
  //               SAPT2+              //
  //<<<<<<<<<<<<<<<<<<<<<<<<<<<<<<<<<<<//


*** tstart() called on node51.bme.utexas.edu
*** at Tue Sep 10 12:22:27 2019

        SAPT2+  
    Ed Hohenstein
     6 June 2009

      Orbital Information
  --------------------------
    NSO        =       414
    NMO        =       414
    NRI        =       912
    NOCC A     =        12
    NOCC B     =        12
    FOCC A     =         3
    FOCC B     =         3
    NVIR A     =       402
    NVIR B     =       402

    Estimated memory usage: 1737.6 MB

    Natural Orbital Cutoff:   1.000E-06
    Disp(T3) Truncation:            Yes
    CCD (vv|vv) Truncation:         Yes
    MBPT T2 Truncation:             Yes

    Monomer A: 218 virtual orbitals dropped
    Monomer B: 218 virtual orbitals dropped

    Elst10,r            =    -0.050835554579 [Eh]
    Exch10 (S^2)        =     0.055026394687 [Eh]
    Exch10              =     0.056002077658 [Eh]
    Ind20,r (A<-B)      =    -0.013962179983 [Eh]
    Ind20,r (B<-A)      =    -0.014170196440 [Eh]
    Ind20,r             =    -0.028132376423 [Eh]
    Exch-Ind20,r (A<-B) =     0.007727950723 [Eh]
    Exch-Ind20,r (B<-A) =     0.007805950359 [Eh]
    Exch-Ind20,r        =     0.015533901081 [Eh]
    Disp20              =    -0.017810859160 [Eh]
    Disp20 (NO)         =    -0.015590843815 [Eh]
    Exch-Disp20         =     0.003659933006 [Eh]
    Elst12,r            =     0.001408264515 [Eh]
    Exch11              =     0.000259083342 [Eh]
    Exch12              =     0.006840810957 [Eh]
    Ind22               =    -0.003817527739 [Eh]
    Disp21              =     0.001401489681 [Eh]
    Disp22 (SDQ)        =    -0.000230833442 [Eh]

    (i =   1 of   9)         27 seconds
    (i =   2 of   9)         54 seconds
    (i =   3 of   9)         81 seconds
    (i =   4 of   9)        107 seconds
    (i =   5 of   9)        134 seconds
    (i =   6 of   9)        160 seconds
    (i =   7 of   9)        187 seconds
    (i =   8 of   9)        214 seconds
    (i =   9 of   9)        242 seconds

    Disp220 (T)         =    -0.001424506913 [Eh]

    (i =   1 of   9)         29 seconds
    (i =   2 of   9)         57 seconds
    (i =   3 of   9)         86 seconds
    (i =   4 of   9)        114 seconds
    (i =   5 of   9)        143 seconds
    (i =   6 of   9)        172 seconds
    (i =   7 of   9)        201 seconds
    (i =   8 of   9)        231 seconds
    (i =   9 of   9)        259 seconds

    Disp202 (T)         =    -0.001414438454 [Eh]

    Disp22 (T)          =    -0.002838945367 [Eh]

    Est. Disp220 (T)    =    -0.001627345659 [Eh]
    Est. Disp202 (T)    =    -0.001615843529 [Eh]

    Est. Disp22 (T)     =    -0.003243189188 [Eh]

    SAPT Results 
  --------------------------------------------------------------------------------------------------------
    Electrostatics                -49.42729006 [mEh]     -31.01609278 [kcal/mol]    -129.77133218 [kJ/mol]
      Elst10,r                    -50.83555458 [mEh]     -31.89979210 [kcal/mol]    -133.46873016 [kJ/mol]
      Elst12,r                      1.40826452 [mEh]       0.88369932 [kcal/mol]       3.69739798 [kJ/mol]

    Exchange                       63.10197196 [mEh]      39.59708522 [kcal/mol]     165.67420455 [kJ/mol]
      Exch10                       56.00207766 [mEh]      35.14183428 [kcal/mol]     147.03343463 [kJ/mol]
      Exch10(S^2)                  55.02639469 [mEh]      34.52958397 [kcal/mol]     144.47177935 [kJ/mol]
      Exch11(S^2)                   0.25908334 [mEh]       0.16257725 [kcal/mol]       0.68022322 [kJ/mol]
      Exch12(S^2)                   6.84081096 [mEh]       4.29267368 [kcal/mol]      17.96054669 [kJ/mol]

    Induction                     -24.54322090 [mEh]     -15.40110363 [kcal/mol]     -64.43821759 [kJ/mol]
      Ind20,r                     -28.13237642 [mEh]     -17.65333273 [kcal/mol]     -73.86154412 [kJ/mol]
      Ind22                        -3.81752774 [mEh]      -2.39553482 [kcal/mol]     -10.02291770 [kJ/mol]
      Exch-Ind20,r                 15.53390108 [mEh]       9.74767009 [kcal/mol]      40.78425167 [kJ/mol]
      Exch-Ind22                    2.10793064 [mEh]       1.32274645 [kcal/mol]       5.53437114 [kJ/mol]
      delta HF,r (2)              -10.23514846 [mEh]      -6.42265262 [kcal/mol]     -26.87237858 [kJ/mol]

    Dispersion                    -16.22345910 [mEh]     -10.18037429 [kcal/mol]     -42.59468601 [kJ/mol]
      Disp20                      -17.81085916 [mEh]     -11.17648286 [kcal/mol]     -46.76240428 [kJ/mol]
      Disp21                        1.40148968 [mEh]       0.87944805 [kcal/mol]       3.67961065 [kJ/mol]
      Disp22 (SDQ)                 -0.23083344 [mEh]      -0.14485017 [kcal/mol]      -0.60605312 [kJ/mol]
      Disp22 (T)                   -2.83894537 [mEh]      -1.78146511 [kcal/mol]      -7.45365003 [kJ/mol]
      Est. Disp22 (T)              -3.24318919 [mEh]      -2.03513194 [kcal/mol]      -8.51499204 [kJ/mol]
      Exch-Disp20                   3.65993301 [mEh]       2.29664263 [kcal/mol]       9.60915278 [kJ/mol]

  Total HF                        -17.66710072 [mEh]     -11.08627308 [kcal/mol]     -46.38496656 [kJ/mol]
  Total SAPT0                     -31.81802688 [mEh]     -19.96611330 [kcal/mol]     -83.53821806 [kJ/mol]
  Total SAPT2                     -25.01946516 [mEh]     -15.69995142 [kcal/mol]     -65.68859673 [kJ/mol]
  Total SAPT2+                    -27.09199811 [mEh]     -17.00048548 [kcal/mol]     -71.13003124 [kJ/mol]

  Special recipe for scaled SAPT0 (see Manual):
    Electrostatics sSAPT0         -50.83555458 [mEh]     -31.89979210 [kcal/mol]    -133.46873016 [kJ/mol]
    Exchange sSAPT0                56.00207766 [mEh]      35.14183428 [kcal/mol]     147.03343463 [kJ/mol]
    Induction sSAPT0              -21.99258263 [mEh]     -13.80055396 [kcal/mol]     -57.74151775 [kJ/mol]
    Dispersion sSAPT0             -13.95276896 [mEh]      -8.75549470 [kcal/mol]     -36.63298985 [kJ/mol]
  Total sSAPT0                    -30.77882851 [mEh]     -19.31400648 [kcal/mol]     -80.80980312 [kJ/mol]
  --------------------------------------------------------------------------------------------------------

*** tstop() called on node51.bme.utexas.edu at Tue Sep 10 12:35:29 2019
Module time:
	user time   =    2728.47 seconds =      45.47 minutes
	system time =      79.25 seconds =       1.32 minutes
	total time  =        782 seconds =      13.03 minutes
Total time:
	user time   =    2885.03 seconds =      48.08 minutes
	system time =      82.79 seconds =       1.38 minutes
	total time  =        826 seconds =      13.77 minutes

    Psi4 stopped on: Tuesday, 10 September 2019 12:35PM
    Psi4 wall time for execution: 0:13:46.83

*** Psi4 exiting successfully. Buy a developer a beer!
