
    -----------------------------------------------------------------------
          Psi4: An Open-Source Ab Initio Electronic Structure Package
                               Psi4 1.3.2 release

                         Git: Rev {HEAD} ecbda83 


    R. M. Parrish, L. A. Burns, D. G. A. Smith, A. C. Simmonett,
    A. E. DePrince III, E. G. Hohenstein, U. Bozkaya, A. Yu. Sokolov,
    R. Di Remigio, R. M. Richard, J. F. Gonthier, A. M. James,
    H. R. McAlexander, A. Kumar, M. Saitow, X. Wang, B. P. Pritchard,
    P. Verma, H. F. Schaefer III, K. Patkowski, R. A. King, E. F. Valeev,
    F. A. Evangelista, J. M. Turney, T. D. Crawford, and C. D. Sherrill,
    J. Chem. Theory Comput. 13(7) pp 3185--3197 (2017).
    (doi: 10.1021/acs.jctc.7b00174)


                         Additional Contributions by
    P. Kraus, H. Kruse, M. H. Lechner, M. C. Schieber, R. A. Shaw,
    A. Alenaizan, R. Galvelis, Z. L. Glick, S. Lehtola, and J. P. Misiewicz

    -----------------------------------------------------------------------


    Psi4 started on: Monday, 09 September 2019 09:11PM

    Process ID: 62054
    Host:       node54.bme.utexas.edu
    PSIDATADIR: /home/xy3866/psi4conda/share/psi4
    Memory:     500.0 MiB
    Threads:    4
    
  ==> Input File <==

--------------------------------------------------------------------------
#psi4
#
memory 32 gb

molecule  {
0 1
  C        2.1022740    -0.1999910     0.0000010
  H        3.1931760    -0.2048250     0.0000000
  N        1.3929100    -1.2773340     0.0000000
  H        2.0119970    -2.0793170    -0.0000010
  N        1.5658380     1.0343930     0.0000000
  H        0.5512430     1.1716950     0.0000000
  H        2.1722770     1.8295020    -0.0000010
--
0 1
  C       -1.2146496     0.1271087     0.0000000
  H       -2.3055516     0.1319427     0.0000000
  N       -0.5052856     1.2044517     0.0000000
  H       -1.1243726     2.0064347     0.0000000
  N       -0.6782136    -1.1072753     0.0000000
  H        0.3363814    -1.2445773     0.0000000
  H       -1.2846526    -1.9023843     0.0000000
units angstrom
no_reorient  #important for SAPT in psi4, default
symmetry c1  #important for SAPT in psi4, default
}

set {
basis aug-cc-pVTZ
scf_type DF
freeze_core True
}
energy('sapt2+')
--------------------------------------------------------------------------

  Memory set to  29.802 GiB by Python driver.

  //>>>>>>>>>>>>>>>>>>>>>>>>>>>>>>>>>>>//
  //              Dimer HF             //
  //<<<<<<<<<<<<<<<<<<<<<<<<<<<<<<<<<<<//


*** tstart() called on node54.bme.utexas.edu
*** at Mon Sep  9 21:11:17 2019

   => Loading Basis Set <=

    Name: AUG-CC-PVTZ
    Role: ORBITAL
    Keyword: BASIS
    atoms 1, 8                    entry C          line   235 file /home/xy3866/psi4conda/share/psi4/basis/aug-cc-pvtz.gbs 
    atoms 2, 4, 6-7, 9, 11, 13-14 entry H          line    36 file /home/xy3866/psi4conda/share/psi4/basis/aug-cc-pvtz.gbs 
    atoms 3, 5, 10, 12            entry N          line   281 file /home/xy3866/psi4conda/share/psi4/basis/aug-cc-pvtz.gbs 


         ---------------------------------------------------------
                                   SCF
               by Justin Turney, Rob Parrish, Andy Simmonett
                          and Daniel G. A. Smith
                              RHF Reference
                        4 Threads,  30517 MiB Core
         ---------------------------------------------------------

  ==> Geometry <==

    Molecular point group: c1
    Full point group: C1

    Geometry (in Angstrom), charge = 0, multiplicity = 1:

       Center              X                  Y                   Z               Mass       
    ------------   -----------------  -----------------  -----------------  -----------------
         C            1.658461800000    -0.163549850000     0.000000886638    12.000000000000
         H            2.749363800000    -0.168383850000    -0.000000113362     1.007825032230
         N            0.949097800000    -1.240892850000    -0.000000113362    14.003074004430
         H            1.568184800000    -2.042875850000    -0.000001113362     1.007825032230
         N            1.122025800000     1.070834150000    -0.000000113362    14.003074004430
         H            0.107430800000     1.208136150000    -0.000000113362     1.007825032230
         H            1.728464800000     1.865943150000    -0.000001113362     1.007825032230
         C           -1.658461800000     0.163549850000    -0.000000113362    12.000000000000
         H           -2.749363800000     0.168383850000    -0.000000113362     1.007825032230
         N           -0.949097800000     1.240892850000    -0.000000113362    14.003074004430
         H           -1.568184800000     2.042875850000    -0.000000113362     1.007825032230
         N           -1.122025800000    -1.070834150000    -0.000000113362    14.003074004430
         H           -0.107430800000    -1.208136150000    -0.000000113362     1.007825032230
         H           -1.728464800000    -1.865943150000    -0.000000113362     1.007825032230

  Running in c1 symmetry.

  Rotational constants: A =      0.18010  B =      0.10986  C =      0.06824 [cm^-1]
  Rotational constants: A =   5399.27069  B =   3293.56702  C =   2045.69100 [MHz]
  Nuclear repulsion =  254.708205830672995

  Charge       = 0
  Multiplicity = 1
  Electrons    = 48
  Nalpha       = 24
  Nbeta        = 24

  ==> Algorithm <==

  SCF Algorithm Type is DF.
  DIIS enabled.
  MOM disabled.
  Fractional occupation disabled.
  Guess Type is SAD.
  Energy threshold   = 1.00e-08
  Density threshold  = 1.00e-08
  Integral threshold = 0.00e+00

  ==> Primary Basis <==

  Basis Set: AUG-CC-PVTZ
    Blend: AUG-CC-PVTZ
    Number of shells: 156
    Number of basis function: 460
    Number of Cartesian functions: 530
    Spherical Harmonics?: true
    Max angular momentum: 3

   => Loading Basis Set <=

    Name: (AUG-CC-PVTZ AUX)
    Role: JKFIT
    Keyword: DF_BASIS_SCF
    atoms 1, 8                    entry C          line   162 file /home/xy3866/psi4conda/share/psi4/basis/aug-cc-pvtz-jkfit.gbs 
    atoms 2, 4, 6-7, 9, 11, 13-14 entry H          line    70 file /home/xy3866/psi4conda/share/psi4/basis/aug-cc-pvtz-jkfit.gbs 
    atoms 3, 5, 10, 12            entry N          line   224 file /home/xy3866/psi4conda/share/psi4/basis/aug-cc-pvtz-jkfit.gbs 

  ==> Pre-Iterations <==

   -------------------------------------------------------
    Irrep   Nso     Nmo     Nalpha   Nbeta   Ndocc  Nsocc
   -------------------------------------------------------
     A        460     460       0       0       0       0
   -------------------------------------------------------
    Total     460     460      24      24      24       0
   -------------------------------------------------------

  ==> Integral Setup <==

  ==> DiskDFJK: Density-Fitted J/K Matrices <==

    J tasked:                  Yes
    K tasked:                  Yes
    wK tasked:                  No
    OpenMP threads:              4
    Integrals threads:           4
    Memory [MiB]:            22888
    Algorithm:                Core
    Integral Cache:           SAVE
    Schwarz Cutoff:          1E-12
    Fitting Condition:       1E-10

   => Auxiliary Basis Set <=

  Basis Set: (AUG-CC-PVTZ AUX)
    Blend: AUG-CC-PVTZ-JKFIT
    Number of shells: 292
    Number of basis function: 992
    Number of Cartesian functions: 1226
    Spherical Harmonics?: true
    Max angular momentum: 4

  Minimum eigenvalue in the overlap matrix is 8.4857763951E-06.
  Using Symmetric Orthogonalization.

  SCF Guess: Superposition of Atomic Densities via on-the-fly atomic UHF.

  ==> Iterations <==

                           Total Energy        Delta E     RMS |[F,P]|

   @DF-RHF iter SAD:  -298.11224397043446   -2.98112e+02   0.00000e+00 
   @DF-RHF iter   1:  -297.76927448950153    3.42969e-01   1.85720e-03 DIIS
   @DF-RHF iter   2:  -297.97913696165517   -2.09862e-01   1.15199e-03 DIIS
   @DF-RHF iter   3:  -298.09313174199195   -1.13995e-01   1.32677e-04 DIIS
   @DF-RHF iter   4:  -298.09576535963527   -2.63362e-03   2.89518e-05 DIIS
   @DF-RHF iter   5:  -298.09591142828856   -1.46069e-04   1.00497e-05 DIIS
   @DF-RHF iter   6:  -298.09592754152050   -1.61132e-05   2.86313e-06 DIIS
   @DF-RHF iter   7:  -298.09592959519989   -2.05368e-06   9.49865e-07 DIIS
   @DF-RHF iter   8:  -298.09592988747573   -2.92276e-07   2.95769e-07 DIIS
   @DF-RHF iter   9:  -298.09592992744359   -3.99679e-08   7.65818e-08 DIIS
   @DF-RHF iter  10:  -298.09592992994754   -2.50395e-09   5.35285e-08 DIIS
   @DF-RHF iter  11:  -298.09592993066099   -7.13442e-10   1.59557e-08 DIIS
   @DF-RHF iter  12:  -298.09592993079082   -1.29830e-10   3.00803e-09 DIIS
  Energy and wave function converged.


  ==> Post-Iterations <==

    Orbital Energies [Eh]
    ---------------------

    Doubly Occupied:                                                      

       1A    -15.499465     2A    -15.499463     3A    -15.487378  
       4A    -15.487376     5A    -11.308416     6A    -11.308414  
       7A     -1.282716     8A     -1.221720     9A     -1.177241  
      10A     -1.097303    11A     -0.891888    12A     -0.780760  
      13A     -0.765407    14A     -0.748646    15A     -0.693769  
      16A     -0.611944    17A     -0.611149    18A     -0.586635  
      19A     -0.530024    20A     -0.487263    21A     -0.406857  
      22A     -0.374722    23A     -0.336432    24A     -0.313989  

    Virtual:                                                              

      25A      0.028597    26A      0.034562    27A      0.037211  
      28A      0.051278    29A      0.051822    30A      0.072090  
      31A      0.073077    32A      0.081453    33A      0.088832  
      34A      0.090648    35A      0.121903    36A      0.130224  
      37A      0.131580    38A      0.135082    39A      0.139663  
      40A      0.143309    41A      0.147097    42A      0.147430  
      43A      0.158375    44A      0.168769    45A      0.170896  
      46A      0.173627    47A      0.187024    48A      0.202616  
      49A      0.205052    50A      0.215755    51A      0.219184  
      52A      0.231481    53A      0.232669    54A      0.239163  
      55A      0.254949    56A      0.279927    57A      0.293089  
      58A      0.303081    59A      0.303664    60A      0.314563  
      61A      0.317613    62A      0.326494    63A      0.332281  
      64A      0.335760    65A      0.337423    66A      0.340039  
      67A      0.358776    68A      0.364973    69A      0.367953  
      70A      0.370568    71A      0.373993    72A      0.378178  
      73A      0.389243    74A      0.394073    75A      0.400847  
      76A      0.401524    77A      0.419402    78A      0.421376  
      79A      0.433237    80A      0.451350    81A      0.459130  
      82A      0.459681    83A      0.461441    84A      0.466545  
      85A      0.468177    86A      0.481392    87A      0.502554  
      88A      0.505656    89A      0.507589    90A      0.539870  
      91A      0.549523    92A      0.551928    93A      0.561277  
      94A      0.568752    95A      0.569775    96A      0.577983  
      97A      0.588278    98A      0.612646    99A      0.618712  
     100A      0.620747   101A      0.645260   102A      0.662013  
     103A      0.665203   104A      0.681742   105A      0.683286  
     106A      0.694497   107A      0.694620   108A      0.705557  
     109A      0.710881   110A      0.717285   111A      0.723532  
     112A      0.730690   113A      0.748522   114A      0.754245  
     115A      0.757467   116A      0.782393   117A      0.786783  
     118A      0.787518   119A      0.803634   120A      0.808841  
     121A      0.818743   122A      0.821502   123A      0.829151  
     124A      0.833078   125A      0.837717   126A      0.860562  
     127A      0.875348   128A      0.898574   129A      0.899711  
     130A      0.922800   131A      0.930750   132A      0.942414  
     133A      0.946864   134A      0.947068   135A      0.954530  
     136A      0.972947   137A      0.982333   138A      0.982500  
     139A      0.987737   140A      0.989306   141A      1.013769  
     142A      1.020703   143A      1.044504   144A      1.052804  
     145A      1.055944   146A      1.066747   147A      1.077838  
     148A      1.082147   149A      1.088118   150A      1.089145  
     151A      1.101514   152A      1.109665   153A      1.121533  
     154A      1.127217   155A      1.160451   156A      1.167928  
     157A      1.181701   158A      1.184369   159A      1.194824  
     160A      1.216210   161A      1.229985   162A      1.230249  
     163A      1.241095   164A      1.244225   165A      1.245683  
     166A      1.261015   167A      1.266216   168A      1.268863  
     169A      1.284449   170A      1.289166   171A      1.295123  
     172A      1.303234   173A      1.306609   174A      1.326008  
     175A      1.329154   176A      1.330069   177A      1.343257  
     178A      1.356427   179A      1.377131   180A      1.389143  
     181A      1.408728   182A      1.410914   183A      1.412092  
     184A      1.419078   185A      1.430555   186A      1.451533  
     187A      1.455540   188A      1.455933   189A      1.459702  
     190A      1.474657   191A      1.486746   192A      1.488169  
     193A      1.502514   194A      1.528087   195A      1.557700  
     196A      1.561239   197A      1.562519   198A      1.566946  
     199A      1.585546   200A      1.591652   201A      1.600353  
     202A      1.612007   203A      1.617855   204A      1.630769  
     205A      1.651937   206A      1.675452   207A      1.695681  
     208A      1.698999   209A      1.704677   210A      1.714328  
     211A      1.735575   212A      1.747421   213A      1.761969  
     214A      1.795412   215A      1.815609   216A      1.831711  
     217A      1.836025   218A      1.842414   219A      1.920688  
     220A      1.925551   221A      1.934084   222A      1.944442  
     223A      1.954385   224A      2.002370   225A      2.017848  
     226A      2.020265   227A      2.050308   228A      2.083812  
     229A      2.084700   230A      2.113291   231A      2.121362  
     232A      2.137176   233A      2.147162   234A      2.159704  
     235A      2.181890   236A      2.190969   237A      2.198292  
     238A      2.201630   239A      2.215474   240A      2.224980  
     241A      2.266397   242A      2.286951   243A      2.287922  
     244A      2.345232   245A      2.362688   246A      2.363075  
     247A      2.365195   248A      2.379494   249A      2.401031  
     250A      2.439623   251A      2.444039   252A      2.453241  
     253A      2.503358   254A      2.514346   255A      2.515457  
     256A      2.525263   257A      2.534115   258A      2.537919  
     259A      2.569334   260A      2.570582   261A      2.589160  
     262A      2.591988   263A      2.605279   264A      2.623704  
     265A      2.626772   266A      2.630261   267A      2.645978  
     268A      2.680412   269A      2.733473   270A      2.751416  
     271A      2.752192   272A      2.762180   273A      2.766747  
     274A      2.800685   275A      2.835212   276A      2.853398  
     277A      2.901286   278A      2.916074   279A      2.970153  
     280A      2.975175   281A      3.004647   282A      3.047311  
     283A      3.061582   284A      3.110778   285A      3.115675  
     286A      3.117532   287A      3.178353   288A      3.202519  
     289A      3.291798   290A      3.330184   291A      3.370713  
     292A      3.395681   293A      3.421095   294A      3.429721  
     295A      3.491464   296A      3.547784   297A      3.567819  
     298A      3.586202   299A      3.588485   300A      3.620671  
     301A      3.668902   302A      3.686508   303A      3.708984  
     304A      3.748908   305A      3.766031   306A      3.771533  
     307A      3.825512   308A      3.882165   309A      3.916014  
     310A      3.928616   311A      3.935375   312A      3.973442  
     313A      3.973709   314A      4.020578   315A      4.053458  
     316A      4.103982   317A      4.130003   318A      4.154085  
     319A      4.158900   320A      4.193276   321A      4.220285  
     322A      4.224076   323A      4.233810   324A      4.245759  
     325A      4.249405   326A      4.294204   327A      4.297150  
     328A      4.336526   329A      4.339729   330A      4.350169  
     331A      4.368301   332A      4.374871   333A      4.380842  
     334A      4.401232   335A      4.407581   336A      4.422464  
     337A      4.428582   338A      4.452820   339A      4.472281  
     340A      4.482978   341A      4.530134   342A      4.530875  
     343A      4.541470   344A      4.558386   345A      4.612789  
     346A      4.648336   347A      4.679309   348A      4.698201  
     349A      4.705118   350A      4.741815   351A      4.746099  
     352A      4.758010   353A      4.767734   354A      4.775936  
     355A      4.794120   356A      4.848495   357A      4.857765  
     358A      4.867680   359A      4.884397   360A      4.895162  
     361A      4.929497   362A      4.947944   363A      4.971350  
     364A      4.974964   365A      4.987386   366A      4.995419  
     367A      5.001538   368A      5.009828   369A      5.017972  
     370A      5.054226   371A      5.058524   372A      5.113008  
     373A      5.152354   374A      5.199802   375A      5.205242  
     376A      5.263613   377A      5.265298   378A      5.291275  
     379A      5.295742   380A      5.304535   381A      5.318124  
     382A      5.374256   383A      5.395222   384A      5.402662  
     385A      5.413940   386A      5.432785   387A      5.467129  
     388A      5.545624   389A      5.547580   390A      5.561503  
     391A      5.574936   392A      5.586880   393A      5.588594  
     394A      5.616469   395A      5.662661   396A      5.677984  
     397A      5.682555   398A      5.695848   399A      5.733300  
     400A      5.777068   401A      5.798244   402A      5.825618  
     403A      5.836519   404A      5.862412   405A      5.879161  
     406A      5.888638   407A      5.891585   408A      5.903101  
     409A      5.962273   410A      5.982851   411A      6.005061  
     412A      6.025949   413A      6.032832   414A      6.037130  
     415A      6.079861   416A      6.163875   417A      6.166993  
     418A      6.195112   419A      6.196961   420A      6.238723  
     421A      6.247880   422A      6.273508   423A      6.306198  
     424A      6.321836   425A      6.358586   426A      6.369726  
     427A      6.407799   428A      6.409853   429A      6.565324  
     430A      6.642716   431A      6.649446   432A      6.684273  
     433A      6.719501   434A      6.855219   435A      6.897836  
     436A      6.948795   437A      7.026068   438A      7.037632  
     439A      7.064276   440A      7.221800   441A      7.237701  
     442A      7.334079   443A      7.362531   444A      7.515348  
     445A      7.663310   446A      7.698153   447A      7.777831  
     448A      7.913919   449A      8.052339   450A      8.370311  
     451A      8.465873   452A      8.544184   453A      8.582835  
     454A      8.723718   455A     18.109017   456A     18.568528  
     457A     18.842859   458A     19.933934   459A     21.378349  
     460A     21.814204  

    Final Occupation by Irrep:
              A 
    DOCC [    24 ]

  @DF-RHF Final Energy:  -298.09592993079082

   => Energetics <=

    Nuclear Repulsion Energy =            254.7082058306729948
    One-Electron Energy =                -910.5903195408193369
    Two-Electron Energy =                 357.7861837793554969
    Total Energy =                       -298.0959299307908168

Computation Completed


Properties will be evaluated at   0.000000,   0.000000,   0.000000 [a0]

Properties computed using the SCF density matrix

  Nuclear Dipole Moment: [e a0]
     X:    -0.0000      Y:    -0.0000      Z:    -0.0000

  Electronic Dipole Moment: [e a0]
     X:     0.0000      Y:    -0.0000      Z:     0.0000

  Dipole Moment: [e a0]
     X:     0.0000      Y:    -0.0000      Z:    -0.0000     Total:     0.0000

  Dipole Moment: [D]
     X:     0.0000      Y:    -0.0000      Z:    -0.0000     Total:     0.0000


*** tstop() called on node54.bme.utexas.edu at Mon Sep  9 21:11:41 2019
Module time:
	user time   =      86.81 seconds =       1.45 minutes
	system time =       1.58 seconds =       0.03 minutes
	total time  =         24 seconds =       0.40 minutes
Total time:
	user time   =      86.81 seconds =       1.45 minutes
	system time =       1.58 seconds =       0.03 minutes
	total time  =         24 seconds =       0.40 minutes

  //>>>>>>>>>>>>>>>>>>>>>>>>>>>>>>>>>>>//
  //            Monomer A HF           //
  //<<<<<<<<<<<<<<<<<<<<<<<<<<<<<<<<<<<//


*** tstart() called on node54.bme.utexas.edu
*** at Mon Sep  9 21:11:41 2019

   => Loading Basis Set <=

    Name: AUG-CC-PVTZ
    Role: ORBITAL
    Keyword: BASIS
    atoms 1, 8                    entry C          line   235 file /home/xy3866/psi4conda/share/psi4/basis/aug-cc-pvtz.gbs 
    atoms 2, 4, 6-7, 9, 11, 13-14 entry H          line    36 file /home/xy3866/psi4conda/share/psi4/basis/aug-cc-pvtz.gbs 
    atoms 3, 5, 10, 12            entry N          line   281 file /home/xy3866/psi4conda/share/psi4/basis/aug-cc-pvtz.gbs 


         ---------------------------------------------------------
                                   SCF
               by Justin Turney, Rob Parrish, Andy Simmonett
                          and Daniel G. A. Smith
                              RHF Reference
                        4 Threads,  30517 MiB Core
         ---------------------------------------------------------

  ==> Geometry <==

    Molecular point group: c1
    Full point group: C1

    Geometry (in Angstrom), charge = 0, multiplicity = 1:

       Center              X                  Y                   Z               Mass       
    ------------   -----------------  -----------------  -----------------  -----------------
         C            1.658461800000    -0.163549850000     0.000000886638    12.000000000000
         H            2.749363800000    -0.168383850000    -0.000000113362     1.007825032230
         N            0.949097800000    -1.240892850000    -0.000000113362    14.003074004430
         H            1.568184800000    -2.042875850000    -0.000001113362     1.007825032230
         N            1.122025800000     1.070834150000    -0.000000113362    14.003074004430
         H            0.107430800000     1.208136150000    -0.000000113362     1.007825032230
         H            1.728464800000     1.865943150000    -0.000001113362     1.007825032230
      Gh(C)          -1.658461800000     0.163549850000    -0.000000113362    12.000000000000
      Gh(H)          -2.749363800000     0.168383850000    -0.000000113362     1.007825032230
      Gh(N)          -0.949097800000     1.240892850000    -0.000000113362    14.003074004430
      Gh(H)          -1.568184800000     2.042875850000    -0.000000113362     1.007825032230
      Gh(N)          -1.122025800000    -1.070834150000    -0.000000113362    14.003074004430
      Gh(H)          -0.107430800000    -1.208136150000    -0.000000113362     1.007825032230
      Gh(H)          -1.728464800000    -1.865943150000    -0.000000113362     1.007825032230

  Running in c1 symmetry.

  Rotational constants: A =      0.18010  B =      0.10986  C =      0.06824 [cm^-1]
  Rotational constants: A =   5399.27069  B =   3293.56702  C =   2045.69100 [MHz]
  Nuclear repulsion =   72.180708619553755

  Charge       = 0
  Multiplicity = 1
  Electrons    = 24
  Nalpha       = 12
  Nbeta        = 12

  ==> Algorithm <==

  SCF Algorithm Type is DF.
  DIIS enabled.
  MOM disabled.
  Fractional occupation disabled.
  Guess Type is SAD.
  Energy threshold   = 1.00e-08
  Density threshold  = 1.00e-08
  Integral threshold = 0.00e+00

  ==> Primary Basis <==

  Basis Set: AUG-CC-PVTZ
    Blend: AUG-CC-PVTZ
    Number of shells: 156
    Number of basis function: 460
    Number of Cartesian functions: 530
    Spherical Harmonics?: true
    Max angular momentum: 3

   => Loading Basis Set <=

    Name: (AUG-CC-PVTZ AUX)
    Role: JKFIT
    Keyword: DF_BASIS_SCF
    atoms 1, 8                    entry C          line   162 file /home/xy3866/psi4conda/share/psi4/basis/aug-cc-pvtz-jkfit.gbs 
    atoms 2, 4, 6-7, 9, 11, 13-14 entry H          line    70 file /home/xy3866/psi4conda/share/psi4/basis/aug-cc-pvtz-jkfit.gbs 
    atoms 3, 5, 10, 12            entry N          line   224 file /home/xy3866/psi4conda/share/psi4/basis/aug-cc-pvtz-jkfit.gbs 

  ==> Pre-Iterations <==

   -------------------------------------------------------
    Irrep   Nso     Nmo     Nalpha   Nbeta   Ndocc  Nsocc
   -------------------------------------------------------
     A        460     460       0       0       0       0
   -------------------------------------------------------
    Total     460     460      12      12      12       0
   -------------------------------------------------------

  ==> Integral Setup <==

  ==> DiskDFJK: Density-Fitted J/K Matrices <==

    J tasked:                  Yes
    K tasked:                  Yes
    wK tasked:                  No
    OpenMP threads:              4
    Integrals threads:           4
    Memory [MiB]:            22888
    Algorithm:                Core
    Integral Cache:           LOAD
    Schwarz Cutoff:          1E-12
    Fitting Condition:       1E-10

   => Auxiliary Basis Set <=

  Basis Set: (AUG-CC-PVTZ AUX)
    Blend: AUG-CC-PVTZ-JKFIT
    Number of shells: 292
    Number of basis function: 992
    Number of Cartesian functions: 1226
    Spherical Harmonics?: true
    Max angular momentum: 4

  Minimum eigenvalue in the overlap matrix is 8.4857763951E-06.
  Using Symmetric Orthogonalization.

  SCF Guess: Superposition of Atomic Densities via on-the-fly atomic UHF.

  ==> Iterations <==

                           Total Energy        Delta E     RMS |[F,P]|

   @DF-RHF iter SAD:  -148.38772642467376   -1.48388e+02   0.00000e+00 
   @DF-RHF iter   1:  -148.99762117396403   -6.09895e-01   1.19337e-03 DIIS
   @DF-RHF iter   2:  -149.09964474309064   -1.02024e-01   7.04185e-04 DIIS
   @DF-RHF iter   3:  -149.14158152965294   -4.19368e-02   9.82843e-05 DIIS
   @DF-RHF iter   4:  -149.14299661772307   -1.41509e-03   4.86472e-05 DIIS
   @DF-RHF iter   5:  -149.14327416552601   -2.77548e-04   8.88696e-06 DIIS
   @DF-RHF iter   6:  -149.14330283046152   -2.86649e-05   4.19539e-06 DIIS
   @DF-RHF iter   7:  -149.14330754245063   -4.71199e-06   1.68852e-06 DIIS
   @DF-RHF iter   8:  -149.14330848314469   -9.40694e-07   5.00162e-07 DIIS
   @DF-RHF iter   9:  -149.14330856959839   -8.64537e-08   1.52558e-07 DIIS
   @DF-RHF iter  10:  -149.14330857718647   -7.58808e-09   3.80484e-08 DIIS
   @DF-RHF iter  11:  -149.14330857766555   -4.79076e-10   7.24514e-09 DIIS
  Energy and wave function converged.


  ==> Post-Iterations <==

    Orbital Energies [Eh]
    ---------------------

    Doubly Occupied:                                                      

       1A    -15.581626     2A    -15.519411     3A    -11.314757  
       4A     -1.258989     5A     -1.137025     6A     -0.829929  
       7A     -0.745803     8A     -0.639644     9A     -0.615807  
      10A     -0.530061    11A     -0.419652    12A     -0.359456  

    Virtual:                                                              

      13A      0.021575    14A      0.031361    15A      0.037662  
      16A      0.051444    17A      0.052919    18A      0.069162  
      19A      0.074862    20A      0.075127    21A      0.086538  
      22A      0.090117    23A      0.100385    24A      0.114980  
      25A      0.125193    26A      0.129942    27A      0.132111  
      28A      0.140064    29A      0.145361    30A      0.148298  
      31A      0.154049    32A      0.163851    33A      0.166728  
      34A      0.168601    35A      0.187338    36A      0.205348  
      37A      0.208217    38A      0.217579    39A      0.218695  
      40A      0.225131    41A      0.233897    42A      0.244458  
      43A      0.257900    44A      0.258261    45A      0.285042  
      46A      0.297802    47A      0.304465    48A      0.305889  
      49A      0.311471    50A      0.319776    51A      0.324905  
      52A      0.331669    53A      0.337220    54A      0.344276  
      55A      0.355020    56A      0.355041    57A      0.362068  
      58A      0.365733    59A      0.372345    60A      0.377753  
      61A      0.389126    62A      0.400095    63A      0.409410  
      64A      0.411553    65A      0.412318    66A      0.412655  
      67A      0.420941    68A      0.431438    69A      0.432575  
      70A      0.452772    71A      0.459431    72A      0.460055  
      73A      0.477527    74A      0.482325    75A      0.498581  
      76A      0.500534    77A      0.509161    78A      0.525355  
      79A      0.533276    80A      0.542219    81A      0.543566  
      82A      0.558085    83A      0.570090    84A      0.579975  
      85A      0.592061    86A      0.596360    87A      0.608841  
      88A      0.620321    89A      0.651610    90A      0.664238  
      91A      0.670233    92A      0.678915    93A      0.681024  
      94A      0.702605    95A      0.709678    96A      0.724962  
      97A      0.727364    98A      0.730843    99A      0.737271  
     100A      0.753348   101A      0.762887   102A      0.768725  
     103A      0.769052   104A      0.785077   105A      0.793631  
     106A      0.800365   107A      0.809628   108A      0.815163  
     109A      0.818076   110A      0.845032   111A      0.848068  
     112A      0.857615   113A      0.859232   114A      0.871880  
     115A      0.885687   116A      0.896954   117A      0.904894  
     118A      0.909398   119A      0.921251   120A      0.929322  
     121A      0.940596   122A      0.958088   123A      0.964544  
     124A      0.977805   125A      0.984059   126A      0.989902  
     127A      0.992284   128A      1.001345   129A      1.015898  
     130A      1.031416   131A      1.032930   132A      1.052252  
     133A      1.056437   134A      1.072244   135A      1.085842  
     136A      1.088208   137A      1.103534   138A      1.107780  
     139A      1.123753   140A      1.124759   141A      1.135193  
     142A      1.146849   143A      1.179484   144A      1.182102  
     145A      1.190105   146A      1.195948   147A      1.204362  
     148A      1.208259   149A      1.221040   150A      1.236251  
     151A      1.238376   152A      1.261780   153A      1.267235  
     154A      1.272347   155A      1.285816   156A      1.298435  
     157A      1.305902   158A      1.306698   159A      1.318749  
     160A      1.346379   161A      1.353323   162A      1.364583  
     163A      1.366209   164A      1.390470   165A      1.397885  
     166A      1.407190   167A      1.410173   168A      1.424662  
     169A      1.429373   170A      1.435631   171A      1.446594  
     172A      1.458559   173A      1.469818   174A      1.493529  
     175A      1.503782   176A      1.504999   177A      1.520808  
     178A      1.533571   179A      1.552387   180A      1.554697  
     181A      1.559631   182A      1.584006   183A      1.589401  
     184A      1.589677   185A      1.608822   186A      1.610354  
     187A      1.631025   188A      1.637912   189A      1.671815  
     190A      1.680519   191A      1.688531   192A      1.700243  
     193A      1.721815   194A      1.731901   195A      1.747655  
     196A      1.750317   197A      1.759648   198A      1.761632  
     199A      1.777933   200A      1.779546   201A      1.794130  
     202A      1.810031   203A      1.811557   204A      1.825715  
     205A      1.857489   206A      1.861283   207A      1.889352  
     208A      1.914407   209A      1.920841   210A      1.950801  
     211A      1.959610   212A      1.975513   213A      1.986860  
     214A      2.004809   215A      2.008493   216A      2.069253  
     217A      2.092724   218A      2.106916   219A      2.136125  
     220A      2.147491   221A      2.156522   222A      2.193700  
     223A      2.207462   224A      2.211217   225A      2.241290  
     226A      2.252030   227A      2.270289   228A      2.278636  
     229A      2.296786   230A      2.299620   231A      2.310987  
     232A      2.369407   233A      2.375337   234A      2.402886  
     235A      2.431289   236A      2.443480   237A      2.460617  
     238A      2.470067   239A      2.489870   240A      2.496535  
     241A      2.541658   242A      2.557994   243A      2.558964  
     244A      2.574182   245A      2.589331   246A      2.609916  
     247A      2.622318   248A      2.632918   249A      2.651731  
     250A      2.653744   251A      2.678318   252A      2.680782  
     253A      2.698017   254A      2.709445   255A      2.738247  
     256A      2.757898   257A      2.771568   258A      2.801437  
     259A      2.805227   260A      2.817185   261A      2.844776  
     262A      2.874583   263A      2.887116   264A      2.939594  
     265A      2.959104   266A      3.008088   267A      3.019575  
     268A      3.036803   269A      3.057288   270A      3.062021  
     271A      3.135048   272A      3.145210   273A      3.164457  
     274A      3.167544   275A      3.191637   276A      3.224619  
     277A      3.237825   278A      3.282297   279A      3.315405  
     280A      3.352575   281A      3.394206   282A      3.481084  
     283A      3.486304   284A      3.505541   285A      3.531210  
     286A      3.573259   287A      3.591563   288A      3.627752  
     289A      3.680567   290A      3.701618   291A      3.728566  
     292A      3.742701   293A      3.796109   294A      3.870263  
     295A      3.893714   296A      3.904740   297A      3.918790  
     298A      3.994019   299A      4.028590   300A      4.080691  
     301A      4.105762   302A      4.145133   303A      4.157111  
     304A      4.164183   305A      4.174067   306A      4.210441  
     307A      4.224379   308A      4.283007   309A      4.306490  
     310A      4.338568   311A      4.347794   312A      4.377309  
     313A      4.392696   314A      4.433038   315A      4.438145  
     316A      4.485911   317A      4.506000   318A      4.511190  
     319A      4.513075   320A      4.538011   321A      4.538029  
     322A      4.574650   323A      4.589145   324A      4.626992  
     325A      4.658736   326A      4.688859   327A      4.698069  
     328A      4.737936   329A      4.745545   330A      4.750217  
     331A      4.798794   332A      4.834736   333A      4.870921  
     334A      4.871484   335A      4.886110   336A      4.900748  
     337A      4.917303   338A      4.940457   339A      4.957457  
     340A      4.957942   341A      4.967953   342A      4.979499  
     343A      4.993979   344A      5.017245   345A      5.026716  
     346A      5.043297   347A      5.045250   348A      5.073931  
     349A      5.093664   350A      5.108589   351A      5.115502  
     352A      5.143978   353A      5.176774   354A      5.178326  
     355A      5.228561   356A      5.246707   357A      5.273634  
     358A      5.307830   359A      5.312685   360A      5.335203  
     361A      5.354538   362A      5.421822   363A      5.433924  
     364A      5.456453   365A      5.480547   366A      5.480663  
     367A      5.494617   368A      5.510179   369A      5.523944  
     370A      5.571617   371A      5.578534   372A      5.603748  
     373A      5.625319   374A      5.652704   375A      5.678964  
     376A      5.699235   377A      5.755599   378A      5.769717  
     379A      5.793336   380A      5.825915   381A      5.861069  
     382A      5.882116   383A      5.933998   384A      5.944663  
     385A      5.964759   386A      6.002719   387A      6.022870  
     388A      6.066244   389A      6.100639   390A      6.132602  
     391A      6.176306   392A      6.178819   393A      6.204904  
     394A      6.250773   395A      6.265424   396A      6.321847  
     397A      6.346055   398A      6.347182   399A      6.440024  
     400A      6.443295   401A      6.500301   402A      6.530511  
     403A      6.531986   404A      6.556180   405A      6.625476  
     406A      6.644634   407A      6.676429   408A      6.715077  
     409A      6.773071   410A      6.786099   411A      6.816259  
     412A      6.858974   413A      6.914959   414A      6.960513  
     415A      6.980169   416A      7.001744   417A      7.076592  
     418A      7.130435   419A      7.204996   420A      7.243887  
     421A      7.292135   422A      7.309124   423A      7.412018  
     424A      7.478272   425A      7.620869   426A      7.627153  
     427A      7.632541   428A      7.755472   429A      7.783043  
     430A      7.832604   431A      7.869695   432A      7.961639  
     433A      8.013181   434A      8.097522   435A      8.185889  
     436A      8.248352   437A      8.307190   438A      8.476393  
     439A      8.604816   440A      8.988984   441A      9.180229  
     442A      9.256500   443A      9.422564   444A      9.517840  
     445A      9.684072   446A      9.805754   447A      9.918472  
     448A     10.867698   449A     11.453660   450A     11.520807  
     451A     12.067400   452A     12.178450   453A     13.145138  
     454A     13.562958   455A     18.498858   456A     20.163010  
     457A     20.823446   458A     53.929283   459A     64.547345  
     460A     65.771993  

    Final Occupation by Irrep:
              A 
    DOCC [    12 ]

  @DF-RHF Final Energy:  -149.14330857766555

   => Energetics <=

    Nuclear Repulsion Energy =             72.1807086195537551
    One-Electron Energy =                -344.7437139634421897
    Two-Electron Energy =                 123.4196967662229127
    Total Energy =                       -149.1433085776655503

Computation Completed


Properties will be evaluated at   0.000000,   0.000000,   0.000000 [a0]

Properties computed using the SCF density matrix

  Nuclear Dipole Moment: [e a0]
     X:    57.8296      Y:    -2.4734      Z:     0.0000

  Electronic Dipole Moment: [e a0]
     X:   -57.0075      Y:     3.4656      Z:    -0.0000

  Dipole Moment: [e a0]
     X:     0.8221      Y:     0.9921      Z:    -0.0000     Total:     1.2885

  Dipole Moment: [D]
     X:     2.0895      Y:     2.5218      Z:    -0.0000     Total:     3.2749


*** tstop() called on node54.bme.utexas.edu at Mon Sep  9 21:11:55 2019
Module time:
	user time   =      48.99 seconds =       0.82 minutes
	system time =       0.94 seconds =       0.02 minutes
	total time  =         14 seconds =       0.23 minutes
Total time:
	user time   =     135.82 seconds =       2.26 minutes
	system time =       2.52 seconds =       0.04 minutes
	total time  =         38 seconds =       0.63 minutes

  //>>>>>>>>>>>>>>>>>>>>>>>>>>>>>>>>>>>//
  //            Monomer B HF           //
  //<<<<<<<<<<<<<<<<<<<<<<<<<<<<<<<<<<<//


*** tstart() called on node54.bme.utexas.edu
*** at Mon Sep  9 21:11:55 2019

   => Loading Basis Set <=

    Name: AUG-CC-PVTZ
    Role: ORBITAL
    Keyword: BASIS
    atoms 1, 8                    entry C          line   235 file /home/xy3866/psi4conda/share/psi4/basis/aug-cc-pvtz.gbs 
    atoms 2, 4, 6-7, 9, 11, 13-14 entry H          line    36 file /home/xy3866/psi4conda/share/psi4/basis/aug-cc-pvtz.gbs 
    atoms 3, 5, 10, 12            entry N          line   281 file /home/xy3866/psi4conda/share/psi4/basis/aug-cc-pvtz.gbs 


         ---------------------------------------------------------
                                   SCF
               by Justin Turney, Rob Parrish, Andy Simmonett
                          and Daniel G. A. Smith
                              RHF Reference
                        4 Threads,  30517 MiB Core
         ---------------------------------------------------------

  ==> Geometry <==

    Molecular point group: c1
    Full point group: C1

    Geometry (in Angstrom), charge = 0, multiplicity = 1:

       Center              X                  Y                   Z               Mass       
    ------------   -----------------  -----------------  -----------------  -----------------
      Gh(C)           1.658461800000    -0.163549850000     0.000000886638    12.000000000000
      Gh(H)           2.749363800000    -0.168383850000    -0.000000113362     1.007825032230
      Gh(N)           0.949097800000    -1.240892850000    -0.000000113362    14.003074004430
      Gh(H)           1.568184800000    -2.042875850000    -0.000001113362     1.007825032230
      Gh(N)           1.122025800000     1.070834150000    -0.000000113362    14.003074004430
      Gh(H)           0.107430800000     1.208136150000    -0.000000113362     1.007825032230
      Gh(H)           1.728464800000     1.865943150000    -0.000001113362     1.007825032230
         C           -1.658461800000     0.163549850000    -0.000000113362    12.000000000000
         H           -2.749363800000     0.168383850000    -0.000000113362     1.007825032230
         N           -0.949097800000     1.240892850000    -0.000000113362    14.003074004430
         H           -1.568184800000     2.042875850000    -0.000000113362     1.007825032230
         N           -1.122025800000    -1.070834150000    -0.000000113362    14.003074004430
         H           -0.107430800000    -1.208136150000    -0.000000113362     1.007825032230
         H           -1.728464800000    -1.865943150000    -0.000000113362     1.007825032230

  Running in c1 symmetry.

  Rotational constants: A =      0.18010  B =      0.10986  C =      0.06824 [cm^-1]
  Rotational constants: A =   5399.27069  B =   3293.56702  C =   2045.69100 [MHz]
  Nuclear repulsion =   72.180708619570424

  Charge       = 0
  Multiplicity = 1
  Electrons    = 24
  Nalpha       = 12
  Nbeta        = 12

  ==> Algorithm <==

  SCF Algorithm Type is DF.
  DIIS enabled.
  MOM disabled.
  Fractional occupation disabled.
  Guess Type is SAD.
  Energy threshold   = 1.00e-08
  Density threshold  = 1.00e-08
  Integral threshold = 0.00e+00

  ==> Primary Basis <==

  Basis Set: AUG-CC-PVTZ
    Blend: AUG-CC-PVTZ
    Number of shells: 156
    Number of basis function: 460
    Number of Cartesian functions: 530
    Spherical Harmonics?: true
    Max angular momentum: 3

   => Loading Basis Set <=

    Name: (AUG-CC-PVTZ AUX)
    Role: JKFIT
    Keyword: DF_BASIS_SCF
    atoms 1, 8                    entry C          line   162 file /home/xy3866/psi4conda/share/psi4/basis/aug-cc-pvtz-jkfit.gbs 
    atoms 2, 4, 6-7, 9, 11, 13-14 entry H          line    70 file /home/xy3866/psi4conda/share/psi4/basis/aug-cc-pvtz-jkfit.gbs 
    atoms 3, 5, 10, 12            entry N          line   224 file /home/xy3866/psi4conda/share/psi4/basis/aug-cc-pvtz-jkfit.gbs 

  ==> Pre-Iterations <==

   -------------------------------------------------------
    Irrep   Nso     Nmo     Nalpha   Nbeta   Ndocc  Nsocc
   -------------------------------------------------------
     A        460     460       0       0       0       0
   -------------------------------------------------------
    Total     460     460      12      12      12       0
   -------------------------------------------------------

  ==> Integral Setup <==

  ==> DiskDFJK: Density-Fitted J/K Matrices <==

    J tasked:                  Yes
    K tasked:                  Yes
    wK tasked:                  No
    OpenMP threads:              4
    Integrals threads:           4
    Memory [MiB]:            22888
    Algorithm:                Core
    Integral Cache:           LOAD
    Schwarz Cutoff:          1E-12
    Fitting Condition:       1E-10

   => Auxiliary Basis Set <=

  Basis Set: (AUG-CC-PVTZ AUX)
    Blend: AUG-CC-PVTZ-JKFIT
    Number of shells: 292
    Number of basis function: 992
    Number of Cartesian functions: 1226
    Spherical Harmonics?: true
    Max angular momentum: 4

  Minimum eigenvalue in the overlap matrix is 8.4857763951E-06.
  Using Symmetric Orthogonalization.

  SCF Guess: Superposition of Atomic Densities via on-the-fly atomic UHF.

  ==> Iterations <==

                           Total Energy        Delta E     RMS |[F,P]|

   @DF-RHF iter SAD:  -148.38772642446798   -1.48388e+02   0.00000e+00 
   @DF-RHF iter   1:  -148.99762117375238   -6.09895e-01   1.19337e-03 DIIS
   @DF-RHF iter   2:  -149.09964474287685   -1.02024e-01   7.04185e-04 DIIS
   @DF-RHF iter   3:  -149.14158152944231   -4.19368e-02   9.82843e-05 DIIS
   @DF-RHF iter   4:  -149.14299661751323   -1.41509e-03   4.86472e-05 DIIS
   @DF-RHF iter   5:  -149.14327416531572   -2.77548e-04   8.88696e-06 DIIS
   @DF-RHF iter   6:  -149.14330283025100   -2.86649e-05   4.19539e-06 DIIS
   @DF-RHF iter   7:  -149.14330754223988   -4.71199e-06   1.68852e-06 DIIS
   @DF-RHF iter   8:  -149.14330848293449   -9.40695e-07   5.00162e-07 DIIS
   @DF-RHF iter   9:  -149.14330856938790   -8.64534e-08   1.52558e-07 DIIS
   @DF-RHF iter  10:  -149.14330857697649   -7.58860e-09   3.80484e-08 DIIS
   @DF-RHF iter  11:  -149.14330857745489   -4.78394e-10   7.24514e-09 DIIS
  Energy and wave function converged.


  ==> Post-Iterations <==

    Orbital Energies [Eh]
    ---------------------

    Doubly Occupied:                                                      

       1A    -15.581626     2A    -15.519411     3A    -11.314757  
       4A     -1.258989     5A     -1.137025     6A     -0.829929  
       7A     -0.745803     8A     -0.639644     9A     -0.615807  
      10A     -0.530061    11A     -0.419652    12A     -0.359456  

    Virtual:                                                              

      13A      0.021575    14A      0.031361    15A      0.037662  
      16A      0.051444    17A      0.052919    18A      0.069162  
      19A      0.074862    20A      0.075127    21A      0.086538  
      22A      0.090117    23A      0.100385    24A      0.114980  
      25A      0.125193    26A      0.129942    27A      0.132111  
      28A      0.140064    29A      0.145361    30A      0.148298  
      31A      0.154049    32A      0.163851    33A      0.166728  
      34A      0.168601    35A      0.187338    36A      0.205348  
      37A      0.208217    38A      0.217579    39A      0.218695  
      40A      0.225131    41A      0.233897    42A      0.244458  
      43A      0.257900    44A      0.258261    45A      0.285042  
      46A      0.297801    47A      0.304465    48A      0.305889  
      49A      0.311471    50A      0.319776    51A      0.324905  
      52A      0.331669    53A      0.337220    54A      0.344276  
      55A      0.355020    56A      0.355041    57A      0.362068  
      58A      0.365733    59A      0.372345    60A      0.377753  
      61A      0.389126    62A      0.400095    63A      0.409410  
      64A      0.411553    65A      0.412318    66A      0.412655  
      67A      0.420941    68A      0.431438    69A      0.432575  
      70A      0.452772    71A      0.459431    72A      0.460055  
      73A      0.477527    74A      0.482325    75A      0.498581  
      76A      0.500534    77A      0.509161    78A      0.525355  
      79A      0.533276    80A      0.542219    81A      0.543566  
      82A      0.558085    83A      0.570090    84A      0.579975  
      85A      0.592061    86A      0.596360    87A      0.608841  
      88A      0.620321    89A      0.651610    90A      0.664238  
      91A      0.670233    92A      0.678915    93A      0.681024  
      94A      0.702605    95A      0.709678    96A      0.724962  
      97A      0.727364    98A      0.730843    99A      0.737271  
     100A      0.753348   101A      0.762887   102A      0.768725  
     103A      0.769052   104A      0.785077   105A      0.793631  
     106A      0.800365   107A      0.809628   108A      0.815163  
     109A      0.818076   110A      0.845032   111A      0.848068  
     112A      0.857615   113A      0.859232   114A      0.871880  
     115A      0.885687   116A      0.896954   117A      0.904894  
     118A      0.909398   119A      0.921251   120A      0.929322  
     121A      0.940596   122A      0.958088   123A      0.964544  
     124A      0.977805   125A      0.984059   126A      0.989902  
     127A      0.992284   128A      1.001345   129A      1.015898  
     130A      1.031416   131A      1.032930   132A      1.052252  
     133A      1.056437   134A      1.072244   135A      1.085842  
     136A      1.088208   137A      1.103534   138A      1.107780  
     139A      1.123753   140A      1.124759   141A      1.135193  
     142A      1.146849   143A      1.179484   144A      1.182102  
     145A      1.190105   146A      1.195948   147A      1.204362  
     148A      1.208259   149A      1.221040   150A      1.236251  
     151A      1.238376   152A      1.261780   153A      1.267235  
     154A      1.272347   155A      1.285816   156A      1.298435  
     157A      1.305902   158A      1.306698   159A      1.318749  
     160A      1.346379   161A      1.353323   162A      1.364583  
     163A      1.366209   164A      1.390470   165A      1.397885  
     166A      1.407190   167A      1.410173   168A      1.424662  
     169A      1.429373   170A      1.435631   171A      1.446594  
     172A      1.458559   173A      1.469818   174A      1.493529  
     175A      1.503782   176A      1.504999   177A      1.520808  
     178A      1.533571   179A      1.552387   180A      1.554697  
     181A      1.559631   182A      1.584006   183A      1.589401  
     184A      1.589677   185A      1.608822   186A      1.610354  
     187A      1.631025   188A      1.637912   189A      1.671815  
     190A      1.680519   191A      1.688531   192A      1.700243  
     193A      1.721815   194A      1.731901   195A      1.747655  
     196A      1.750317   197A      1.759648   198A      1.761632  
     199A      1.777933   200A      1.779546   201A      1.794130  
     202A      1.810031   203A      1.811557   204A      1.825715  
     205A      1.857489   206A      1.861283   207A      1.889352  
     208A      1.914407   209A      1.920841   210A      1.950801  
     211A      1.959610   212A      1.975513   213A      1.986860  
     214A      2.004809   215A      2.008493   216A      2.069253  
     217A      2.092724   218A      2.106916   219A      2.136125  
     220A      2.147491   221A      2.156522   222A      2.193700  
     223A      2.207462   224A      2.211217   225A      2.241290  
     226A      2.252030   227A      2.270289   228A      2.278636  
     229A      2.296786   230A      2.299620   231A      2.310987  
     232A      2.369407   233A      2.375337   234A      2.402886  
     235A      2.431289   236A      2.443480   237A      2.460617  
     238A      2.470067   239A      2.489870   240A      2.496535  
     241A      2.541658   242A      2.557994   243A      2.558964  
     244A      2.574182   245A      2.589331   246A      2.609916  
     247A      2.622318   248A      2.632918   249A      2.651731  
     250A      2.653744   251A      2.678318   252A      2.680782  
     253A      2.698017   254A      2.709445   255A      2.738247  
     256A      2.757898   257A      2.771568   258A      2.801437  
     259A      2.805227   260A      2.817185   261A      2.844776  
     262A      2.874583   263A      2.887116   264A      2.939594  
     265A      2.959104   266A      3.008088   267A      3.019575  
     268A      3.036803   269A      3.057288   270A      3.062021  
     271A      3.135048   272A      3.145210   273A      3.164457  
     274A      3.167544   275A      3.191637   276A      3.224619  
     277A      3.237825   278A      3.282297   279A      3.315405  
     280A      3.352575   281A      3.394206   282A      3.481084  
     283A      3.486304   284A      3.505541   285A      3.531210  
     286A      3.573259   287A      3.591563   288A      3.627752  
     289A      3.680567   290A      3.701618   291A      3.728566  
     292A      3.742701   293A      3.796109   294A      3.870263  
     295A      3.893714   296A      3.904740   297A      3.918790  
     298A      3.994019   299A      4.028590   300A      4.080691  
     301A      4.105762   302A      4.145133   303A      4.157111  
     304A      4.164183   305A      4.174067   306A      4.210441  
     307A      4.224379   308A      4.283007   309A      4.306490  
     310A      4.338568   311A      4.347794   312A      4.377309  
     313A      4.392696   314A      4.433038   315A      4.438145  
     316A      4.485911   317A      4.506000   318A      4.511190  
     319A      4.513075   320A      4.538011   321A      4.538029  
     322A      4.574650   323A      4.589145   324A      4.626992  
     325A      4.658736   326A      4.688859   327A      4.698069  
     328A      4.737935   329A      4.745545   330A      4.750217  
     331A      4.798794   332A      4.834736   333A      4.870921  
     334A      4.871484   335A      4.886110   336A      4.900748  
     337A      4.917303   338A      4.940457   339A      4.957457  
     340A      4.957942   341A      4.967953   342A      4.979499  
     343A      4.993979   344A      5.017245   345A      5.026716  
     346A      5.043297   347A      5.045250   348A      5.073931  
     349A      5.093664   350A      5.108589   351A      5.115502  
     352A      5.143978   353A      5.176774   354A      5.178326  
     355A      5.228561   356A      5.246707   357A      5.273634  
     358A      5.307830   359A      5.312685   360A      5.335203  
     361A      5.354538   362A      5.421822   363A      5.433924  
     364A      5.456453   365A      5.480547   366A      5.480663  
     367A      5.494617   368A      5.510179   369A      5.523944  
     370A      5.571617   371A      5.578534   372A      5.603748  
     373A      5.625319   374A      5.652704   375A      5.678964  
     376A      5.699235   377A      5.755599   378A      5.769717  
     379A      5.793336   380A      5.825915   381A      5.861069  
     382A      5.882116   383A      5.933998   384A      5.944663  
     385A      5.964759   386A      6.002719   387A      6.022870  
     388A      6.066244   389A      6.100639   390A      6.132602  
     391A      6.176306   392A      6.178819   393A      6.204904  
     394A      6.250773   395A      6.265424   396A      6.321847  
     397A      6.346055   398A      6.347182   399A      6.440024  
     400A      6.443295   401A      6.500301   402A      6.530511  
     403A      6.531986   404A      6.556180   405A      6.625476  
     406A      6.644634   407A      6.676429   408A      6.715077  
     409A      6.773071   410A      6.786099   411A      6.816259  
     412A      6.858974   413A      6.914959   414A      6.960513  
     415A      6.980169   416A      7.001744   417A      7.076592  
     418A      7.130435   419A      7.204996   420A      7.243887  
     421A      7.292135   422A      7.309124   423A      7.412018  
     424A      7.478272   425A      7.620869   426A      7.627153  
     427A      7.632541   428A      7.755472   429A      7.783043  
     430A      7.832604   431A      7.869695   432A      7.961639  
     433A      8.013181   434A      8.097522   435A      8.185889  
     436A      8.248352   437A      8.307190   438A      8.476393  
     439A      8.604816   440A      8.988984   441A      9.180229  
     442A      9.256500   443A      9.422564   444A      9.517840  
     445A      9.684072   446A      9.805754   447A      9.918472  
     448A     10.867698   449A     11.453660   450A     11.520807  
     451A     12.067400   452A     12.178450   453A     13.145138  
     454A     13.562958   455A     18.498858   456A     20.163010  
     457A     20.823446   458A     53.929283   459A     64.547345  
     460A     65.771993  

    Final Occupation by Irrep:
              A 
    DOCC [    12 ]

  @DF-RHF Final Energy:  -149.14330857745489

   => Energetics <=

    Nuclear Repulsion Energy =             72.1807086195704244
    One-Electron Energy =                -344.7437139633346987
    Two-Electron Energy =                 123.4196967663094284
    Total Energy =                       -149.1433085774548886

Computation Completed


Properties will be evaluated at   0.000000,   0.000000,   0.000000 [a0]

Properties computed using the SCF density matrix

  Nuclear Dipole Moment: [e a0]
     X:   -57.8296      Y:     2.4734      Z:    -0.0000

  Electronic Dipole Moment: [e a0]
     X:    57.0075      Y:    -3.4656      Z:     0.0000

  Dipole Moment: [e a0]
     X:    -0.8221      Y:    -0.9921      Z:    -0.0000     Total:     1.2885

  Dipole Moment: [D]
     X:    -2.0895      Y:    -2.5218      Z:    -0.0000     Total:     3.2749


*** tstop() called on node54.bme.utexas.edu at Mon Sep  9 21:12:08 2019
Module time:
	user time   =      47.91 seconds =       0.80 minutes
	system time =       1.12 seconds =       0.02 minutes
	total time  =         13 seconds =       0.22 minutes
Total time:
	user time   =     183.76 seconds =       3.06 minutes
	system time =       3.64 seconds =       0.06 minutes
	total time  =         51 seconds =       0.85 minutes
  Constructing Basis Sets for SAPT...

   => Loading Basis Set <=

    Name: (AUG-CC-PVTZ AUX)
    Role: RIFIT
    Keyword: DF_BASIS_SAPT
    atoms 1, 8                    entry C          line   148 file /home/xy3866/psi4conda/share/psi4/basis/aug-cc-pvtz-ri.gbs 
    atoms 2, 4, 6-7, 9, 11, 13-14 entry H          line    30 file /home/xy3866/psi4conda/share/psi4/basis/aug-cc-pvtz-ri.gbs 
    atoms 3, 5, 10, 12            entry N          line   206 file /home/xy3866/psi4conda/share/psi4/basis/aug-cc-pvtz-ri.gbs 


  //>>>>>>>>>>>>>>>>>>>>>>>>>>>>>>>>>>>//
  //               SAPT2+              //
  //<<<<<<<<<<<<<<<<<<<<<<<<<<<<<<<<<<<//


*** tstart() called on node54.bme.utexas.edu
*** at Mon Sep  9 21:12:08 2019

        SAPT2+  
    Ed Hohenstein
     6 June 2009

      Orbital Information
  --------------------------
    NSO        =       460
    NMO        =       460
    NRI        =      1004
    NOCC A     =        12
    NOCC B     =        12
    FOCC A     =         3
    FOCC B     =         3
    NVIR A     =       448
    NVIR B     =       448

    Estimated memory usage: 2305.7 MB

    Natural Orbital Cutoff:   1.000E-06
    Disp(T3) Truncation:            Yes
    CCD (vv|vv) Truncation:         Yes
    MBPT T2 Truncation:             Yes

    Monomer A: 232 virtual orbitals dropped
    Monomer B: 232 virtual orbitals dropped

    Elst10,r            =    -0.238517038890 [Eh]
    Exch10 (S^2)        =     0.553905078162 [Eh]
    Exch10              =     0.656735157383 [Eh]
    Ind20,r (A<-B)      =    -0.195932113827 [Eh]
    Ind20,r (B<-A)      =    -0.195932113843 [Eh]
    Ind20,r             =    -0.391864227670 [Eh]
    Exch-Ind20,r (A<-B) =     0.092998793309 [Eh]
    Exch-Ind20,r (B<-A) =     0.092998793316 [Eh]
    Exch-Ind20,r        =     0.185997586625 [Eh]
    Disp20              =    -0.103944762082 [Eh]
    Disp20 (NO)         =    -0.097256965003 [Eh]
    Exch-Disp20         =     0.017229740398 [Eh]
    Elst12,r            =     0.001792537154 [Eh]
    Exch11              =     0.005971775726 [Eh]
    Exch12              =    -0.004945137926 [Eh]
    Ind22               =    -0.024740357723 [Eh]
    Disp21              =     0.016626313730 [Eh]
    Disp22 (SDQ)        =     0.000549732977 [Eh]

    (i =   1 of   9)         46 seconds
    (i =   2 of   9)         90 seconds
    (i =   3 of   9)        135 seconds
    (i =   4 of   9)        180 seconds
    (i =   5 of   9)        224 seconds
    (i =   6 of   9)        269 seconds
    (i =   7 of   9)        313 seconds
    (i =   8 of   9)        358 seconds
    (i =   9 of   9)        402 seconds

    Disp220 (T)         =    -0.006671795992 [Eh]

    (i =   1 of   9)         43 seconds
    (i =   2 of   9)         84 seconds
    (i =   3 of   9)        123 seconds
    (i =   4 of   9)        162 seconds
    (i =   5 of   9)        201 seconds
    (i =   6 of   9)        241 seconds
    (i =   7 of   9)        281 seconds
    (i =   8 of   9)        320 seconds
    (i =   9 of   9)        359 seconds

    Disp202 (T)         =    -0.006671795993 [Eh]

    Disp22 (T)          =    -0.013343591985 [Eh]

    Est. Disp220 (T)    =    -0.007130576685 [Eh]
    Est. Disp202 (T)    =    -0.007130576685 [Eh]

    Est. Disp22 (T)     =    -0.014261153370 [Eh]

    SAPT Results 
  --------------------------------------------------------------------------------------------------------
    Electrostatics               -236.72450174 [mEh]    -148.54686751 [kcal/mol]    -621.52009368 [kJ/mol]
      Elst10,r                   -238.51703889 [mEh]    -149.67170156 [kcal/mol]    -626.22639933 [kJ/mol]
      Elst12,r                      1.79253715 [mEh]       1.12483405 [kcal/mol]       4.70630565 [kJ/mol]

    Exchange                      657.76179518 [mEh]     412.75175797 [kcal/mol]    1726.95335533 [kJ/mol]
      Exch10                      656.73515738 [mEh]     412.10753302 [kcal/mol]    1724.25791816 [kJ/mol]
      Exch10(S^2)                 553.90507816 [mEh]     347.58068412 [kcal/mol]    1454.27758236 [kJ/mol]
      Exch11(S^2)                   5.97177573 [mEh]       3.74734584 [kcal/mol]      15.67889501 [kJ/mol]
      Exch12(S^2)                  -4.94513793 [mEh]      -3.10312090 [kcal/mol]     -12.98345783 [kJ/mol]

    Induction                    -240.52828965 [mEh]    -150.93378046 [kcal/mol]    -631.50693746 [kJ/mol]
      Ind20,r                    -391.86422767 [mEh]    -245.89851530 [kcal/mol]   -1028.83938800 [kJ/mol]
      Ind22                       -24.74035772 [mEh]     -15.52480886 [kcal/mol]     -64.95580025 [kJ/mol]
      Exch-Ind20,r                185.99758662 [mEh]     116.71524771 [kcal/mol]     488.33659640 [kJ/mol]
      Exch-Ind22                   11.74296224 [mEh]       7.36882006 [kcal/mol]      30.83114311 [kJ/mol]
      delta HF,r (2)              -21.66425312 [mEh]     -13.59452407 [kcal/mol]     -56.87948872 [kJ/mol]

    Dispersion                    -83.80012835 [mEh]     -52.58537444 [kcal/mol]    -220.01720666 [kJ/mol]
      Disp20                     -103.94476208 [mEh]     -65.22632296 [kcal/mol]    -272.90693525 [kJ/mol]
      Disp21                       16.62631373 [mEh]      10.43316938 [kcal/mol]      43.65238068 [kJ/mol]
      Disp22 (SDQ)                  0.54973298 [mEh]       0.34496265 [kcal/mol]       1.44332373 [kJ/mol]
      Disp22 (T)                  -13.34359199 [mEh]      -8.37323038 [kcal/mol]     -35.03359593 [kJ/mol]
      Est. Disp22 (T)             -14.26115337 [mEh]      -8.94900885 [kcal/mol]     -37.44265301 [kJ/mol]
      Exch-Disp20                  17.22974040 [mEh]      10.81182533 [kcal/mol]      45.23667718 [kJ/mol]

  Total HF                        190.68722433 [mEh]     119.65803980 [kcal/mol]     500.64923850 [kJ/mol]
  Total SAPT0                     103.97220265 [mEh]      65.24354217 [kcal/mol]     272.97898044 [kJ/mol]
  Total SAPT2                      93.79398212 [mEh]      58.85661236 [kcal/mol]     246.25606612 [kJ/mol]
  Total SAPT2+                     96.70887545 [mEh]      60.68573555 [kcal/mol]     253.90911752 [kJ/mol]

  Special recipe for scaled SAPT0 (see Manual):
    Electrostatics sSAPT0        -238.51703889 [mEh]    -149.67170156 [kcal/mol]    -626.22639933 [kJ/mol]
    Exchange sSAPT0               656.73515738 [mEh]     412.10753302 [kcal/mol]    1724.25791816 [kJ/mol]
    Induction sSAPT0             -103.52107585 [mEh]     -64.96045583 [kcal/mol]    -271.79454720 [kJ/mol]
    Dispersion sSAPT0             -75.22746953 [mEh]     -47.20594982 [kcal/mol]    -197.50969405 [kJ/mol]
  Total sSAPT0                    239.46957311 [mEh]     150.26942581 [kcal/mol]     628.72727758 [kJ/mol]
  --------------------------------------------------------------------------------------------------------

*** tstop() called on node54.bme.utexas.edu at Mon Sep  9 21:29:59 2019
Module time:
	user time   =    4102.00 seconds =      68.37 minutes
	system time =      64.69 seconds =       1.08 minutes
	total time  =       1071 seconds =      17.85 minutes
Total time:
	user time   =    4286.07 seconds =      71.43 minutes
	system time =      68.34 seconds =       1.14 minutes
	total time  =       1122 seconds =      18.70 minutes

    Psi4 stopped on: Monday, 09 September 2019 09:29PM
    Psi4 wall time for execution: 0:18:41.24

*** Psi4 exiting successfully. Buy a developer a beer!
