
    -----------------------------------------------------------------------
          Psi4: An Open-Source Ab Initio Electronic Structure Package
                               Psi4 1.3.2 release

                         Git: Rev {HEAD} ecbda83 


    R. M. Parrish, L. A. Burns, D. G. A. Smith, A. C. Simmonett,
    A. E. DePrince III, E. G. Hohenstein, U. Bozkaya, A. Yu. Sokolov,
    R. Di Remigio, R. M. Richard, J. F. Gonthier, A. M. James,
    H. R. McAlexander, A. Kumar, M. Saitow, X. Wang, B. P. Pritchard,
    P. Verma, H. F. Schaefer III, K. Patkowski, R. A. King, E. F. Valeev,
    F. A. Evangelista, J. M. Turney, T. D. Crawford, and C. D. Sherrill,
    J. Chem. Theory Comput. 13(7) pp 3185--3197 (2017).
    (doi: 10.1021/acs.jctc.7b00174)


                         Additional Contributions by
    P. Kraus, H. Kruse, M. H. Lechner, M. C. Schieber, R. A. Shaw,
    A. Alenaizan, R. Galvelis, Z. L. Glick, S. Lehtola, and J. P. Misiewicz

    -----------------------------------------------------------------------


    Psi4 started on: Monday, 09 September 2019 08:23PM

    Process ID: 60023
    Host:       node54.bme.utexas.edu
    PSIDATADIR: /home/xy3866/psi4conda/share/psi4
    Memory:     500.0 MiB
    Threads:    4
    
  ==> Input File <==

--------------------------------------------------------------------------
#psi4
#
memory 32 gb

molecule  {
0 1
  C       -1.9644470     0.1609890    -0.0000020
  H       -3.0589320     0.1627090    -0.0000040
  O       -1.3160380     1.1929960    -0.0000020
  O       -1.4968300    -1.0660630     0.0000020
  H       -0.4778920    -1.0649310     0.0000090
--
0 1
  C        1.8629159    -0.1775729    -0.0000030
  H        2.9447319    -0.2997979    -0.0000050
  N        1.0451249    -1.1749398    -0.0000010
  H        1.5557199    -2.0484449    -0.0000010
  N        1.4480659     1.0992512     0.0000020
  H        0.4520489     1.2977842     0.0000010
  H        2.1149859     1.8439272     0.0000040
units angstrom
no_reorient  #important for SAPT in psi4, default
symmetry c1  #important for SAPT in psi4, default
}

set {
basis aug-cc-pVTZ
scf_type DF
freeze_core True
}
energy('sapt2+')
--------------------------------------------------------------------------

  Memory set to  29.802 GiB by Python driver.

  //>>>>>>>>>>>>>>>>>>>>>>>>>>>>>>>>>>>//
  //              Dimer HF             //
  //<<<<<<<<<<<<<<<<<<<<<<<<<<<<<<<<<<<//


*** tstart() called on node54.bme.utexas.edu
*** at Mon Sep  9 20:23:40 2019

   => Loading Basis Set <=

    Name: AUG-CC-PVTZ
    Role: ORBITAL
    Keyword: BASIS
    atoms 1, 6              entry C          line   235 file /home/xy3866/psi4conda/share/psi4/basis/aug-cc-pvtz.gbs 
    atoms 2, 5, 7, 9, 11-12 entry H          line    36 file /home/xy3866/psi4conda/share/psi4/basis/aug-cc-pvtz.gbs 
    atoms 3-4               entry O          line   327 file /home/xy3866/psi4conda/share/psi4/basis/aug-cc-pvtz.gbs 
    atoms 8, 10             entry N          line   281 file /home/xy3866/psi4conda/share/psi4/basis/aug-cc-pvtz.gbs 


         ---------------------------------------------------------
                                   SCF
               by Justin Turney, Rob Parrish, Andy Simmonett
                          and Daniel G. A. Smith
                              RHF Reference
                        4 Threads,  30517 MiB Core
         ---------------------------------------------------------

  ==> Geometry <==

    Molecular point group: c1
    Full point group: C1

    Geometry (in Angstrom), charge = 0, multiplicity = 1:

       Center              X                  Y                   Z               Mass       
    ------------   -----------------  -----------------  -----------------  -----------------
         C           -1.878495426813     0.153639191967    -0.000001533938    12.000000000000
         H           -2.972980426813     0.155359191967    -0.000003533938     1.007825032230
         O           -1.230086426813     1.185646191967    -0.000001533938    15.994914619570
         O           -1.410878426813    -1.073412808033     0.000002466062    15.994914619570
         H           -0.391940426813    -1.072280808033     0.000009466062     1.007825032230
         C            1.948867473187    -0.184922708033    -0.000002533938    12.000000000000
         H            3.030683473187    -0.307147708033    -0.000004533938     1.007825032230
         N            1.131076473187    -1.182289608033    -0.000000533938    14.003074004430
         H            1.641671473187    -2.055794708033    -0.000000533938     1.007825032230
         N            1.534017473187     1.091901391967     0.000002466062    14.003074004430
         H            0.538000473187     1.290434391967     0.000001466062     1.007825032230
         H            2.200937473187     1.836577391967     0.000004466062     1.007825032230

  Running in c1 symmetry.

  Rotational constants: A =      0.19055  B =      0.07626  C =      0.05446 [cm^-1]
  Rotational constants: A =   5712.53159  B =   2286.13074  C =   1632.72226 [MHz]
  Nuclear repulsion =  236.123212806605892

  Charge       = 0
  Multiplicity = 1
  Electrons    = 48
  Nalpha       = 24
  Nbeta        = 24

  ==> Algorithm <==

  SCF Algorithm Type is DF.
  DIIS enabled.
  MOM disabled.
  Fractional occupation disabled.
  Guess Type is SAD.
  Energy threshold   = 1.00e-08
  Density threshold  = 1.00e-08
  Integral threshold = 0.00e+00

  ==> Primary Basis <==

  Basis Set: AUG-CC-PVTZ
    Blend: AUG-CC-PVTZ
    Number of shells: 138
    Number of basis function: 414
    Number of Cartesian functions: 480
    Spherical Harmonics?: true
    Max angular momentum: 3

   => Loading Basis Set <=

    Name: (AUG-CC-PVTZ AUX)
    Role: JKFIT
    Keyword: DF_BASIS_SCF
    atoms 1, 6              entry C          line   162 file /home/xy3866/psi4conda/share/psi4/basis/aug-cc-pvtz-jkfit.gbs 
    atoms 2, 5, 7, 9, 11-12 entry H          line    70 file /home/xy3866/psi4conda/share/psi4/basis/aug-cc-pvtz-jkfit.gbs 
    atoms 3-4               entry O          line   286 file /home/xy3866/psi4conda/share/psi4/basis/aug-cc-pvtz-jkfit.gbs 
    atoms 8, 10             entry N          line   224 file /home/xy3866/psi4conda/share/psi4/basis/aug-cc-pvtz-jkfit.gbs 

  ==> Pre-Iterations <==

   -------------------------------------------------------
    Irrep   Nso     Nmo     Nalpha   Nbeta   Ndocc  Nsocc
   -------------------------------------------------------
     A        414     414       0       0       0       0
   -------------------------------------------------------
    Total     414     414      24      24      24       0
   -------------------------------------------------------

  ==> Integral Setup <==

  ==> DiskDFJK: Density-Fitted J/K Matrices <==

    J tasked:                  Yes
    K tasked:                  Yes
    wK tasked:                  No
    OpenMP threads:              4
    Integrals threads:           4
    Memory [MiB]:            22888
    Algorithm:                Core
    Integral Cache:           SAVE
    Schwarz Cutoff:          1E-12
    Fitting Condition:       1E-10

   => Auxiliary Basis Set <=

  Basis Set: (AUG-CC-PVTZ AUX)
    Blend: AUG-CC-PVTZ-JKFIT
    Number of shells: 264
    Number of basis function: 900
    Number of Cartesian functions: 1116
    Spherical Harmonics?: true
    Max angular momentum: 4

  Minimum eigenvalue in the overlap matrix is 2.3241787014E-05.
  Using Symmetric Orthogonalization.

  SCF Guess: Superposition of Atomic Densities via on-the-fly atomic UHF.

  ==> Iterations <==

                           Total Energy        Delta E     RMS |[F,P]|

   @DF-RHF iter SAD:  -336.77128752641806   -3.36771e+02   0.00000e+00 
   @DF-RHF iter   1:  -337.79407994037729   -1.02279e+00   1.71781e-03 DIIS
   @DF-RHF iter   2:  -337.94257004579515   -1.48490e-01   1.01865e-03 DIIS
   @DF-RHF iter   3:  -338.00322605890051   -6.06560e-02   1.39456e-04 DIIS
   @DF-RHF iter   4:  -338.00532153936410   -2.09548e-03   6.26963e-05 DIIS
   @DF-RHF iter   5:  -338.00566192293769   -3.40384e-04   1.50817e-05 DIIS
   @DF-RHF iter   6:  -338.00570589168916   -4.39688e-05   7.61602e-06 DIIS
   @DF-RHF iter   7:  -338.00571678255864   -1.08909e-05   2.66361e-06 DIIS
   @DF-RHF iter   8:  -338.00571871197559   -1.92942e-06   1.06376e-06 DIIS
   @DF-RHF iter   9:  -338.00571897599696   -2.64021e-07   3.60932e-07 DIIS
   @DF-RHF iter  10:  -338.00571900872308   -3.27261e-08   1.29846e-07 DIIS
   @DF-RHF iter  11:  -338.00571901176568   -3.04260e-09   4.49331e-08 DIIS
   @DF-RHF iter  12:  -338.00571901214136   -3.75678e-10   1.53798e-08 DIIS
   @DF-RHF iter  13:  -338.00571901216989   -2.85354e-11   4.19893e-09 DIIS
  Energy and wave function converged.


  ==> Post-Iterations <==

    Orbital Energies [Eh]
    ---------------------

    Doubly Occupied:                                                      

       1A    -20.568852     2A    -20.540215     3A    -15.576635  
       4A    -15.542702     5A    -11.372582     6A    -11.338816  
       7A     -1.438465     8A     -1.342934     9A     -1.274870  
      10A     -1.158526    11A     -0.875966    12A     -0.834285  
      13A     -0.762595    14A     -0.719246    15A     -0.691810  
      16A     -0.645964    17A     -0.626630    18A     -0.602965  
      19A     -0.574124    20A     -0.542629    21A     -0.467220  
      22A     -0.463577    23A     -0.432608    24A     -0.379733  

    Virtual:                                                              

      25A      0.022396    26A      0.036247    27A      0.039979  
      28A      0.051606    29A      0.069019    30A      0.072682  
      31A      0.073163    32A      0.089790    33A      0.111571  
      34A      0.116613    35A      0.119458    36A      0.123967  
      37A      0.135355    38A      0.139922    39A      0.144456  
      40A      0.149656    41A      0.155635    42A      0.163094  
      43A      0.185089    44A      0.189847    45A      0.197664  
      46A      0.198343    47A      0.208874    48A      0.220386  
      49A      0.231467    50A      0.253299    51A      0.262368  
      52A      0.267233    53A      0.273008    54A      0.277288  
      55A      0.280646    56A      0.292012    57A      0.306281  
      58A      0.311126    59A      0.317977    60A      0.324344  
      61A      0.325839    62A      0.329957    63A      0.335448  
      64A      0.341626    65A      0.363097    66A      0.365930  
      67A      0.384032    68A      0.387134    69A      0.389611  
      70A      0.410841    71A      0.416932    72A      0.417676  
      73A      0.433770    74A      0.440597    75A      0.443968  
      76A      0.459935    77A      0.465399    78A      0.474807  
      79A      0.487141    80A      0.499066    81A      0.501331  
      82A      0.514216    83A      0.516762    84A      0.531413  
      85A      0.539524    86A      0.540469    87A      0.566519  
      88A      0.576476    89A      0.588978    90A      0.592206  
      91A      0.602426    92A      0.610836    93A      0.644112  
      94A      0.646601    95A      0.654667    96A      0.659828  
      97A      0.679766    98A      0.686402    99A      0.691242  
     100A      0.706165   101A      0.706504   102A      0.723231  
     103A      0.738047   104A      0.743906   105A      0.771976  
     106A      0.774941   107A      0.783767   108A      0.794249  
     109A      0.816352   110A      0.822578   111A      0.837386  
     112A      0.841811   113A      0.846217   114A      0.858272  
     115A      0.867287   116A      0.894641   117A      0.899305  
     118A      0.913475   119A      0.913990   120A      0.924750  
     121A      0.931633   122A      0.948982   123A      0.959709  
     124A      0.961272   125A      0.974013   126A      0.976685  
     127A      0.985218   128A      0.990263   129A      1.003865  
     130A      1.012160   131A      1.017189   132A      1.022806  
     133A      1.032586   134A      1.038816   135A      1.053469  
     136A      1.072601   137A      1.080233   138A      1.083920  
     139A      1.087479   140A      1.094973   141A      1.099786  
     142A      1.136292   143A      1.142987   144A      1.158743  
     145A      1.168485   146A      1.168596   147A      1.184415  
     148A      1.203754   149A      1.213858   150A      1.233885  
     151A      1.245917   152A      1.255235   153A      1.271272  
     154A      1.290856   155A      1.293795   156A      1.311966  
     157A      1.313436   158A      1.322209   159A      1.340751  
     160A      1.350746   161A      1.361496   162A      1.371176  
     163A      1.382666   164A      1.403969   165A      1.416621  
     166A      1.439905   167A      1.441970   168A      1.445737  
     169A      1.452063   170A      1.462451   171A      1.482479  
     172A      1.488164   173A      1.522198   174A      1.544709  
     175A      1.544848   176A      1.553726   177A      1.559410  
     178A      1.573778   179A      1.591867   180A      1.597821  
     181A      1.604234   182A      1.620772   183A      1.637559  
     184A      1.659310   185A      1.665667   186A      1.684949  
     187A      1.709680   188A      1.714074   189A      1.719414  
     190A      1.756806   191A      1.777061   192A      1.793022  
     193A      1.819694   194A      1.825383   195A      1.849155  
     196A      1.868446   197A      1.895669   198A      1.961788  
     199A      1.971997   200A      1.978947   201A      2.002513  
     202A      2.008219   203A      2.035244   204A      2.037395  
     205A      2.093821   206A      2.101228   207A      2.106230  
     208A      2.129825   209A      2.142065   210A      2.168357  
     211A      2.183293   212A      2.192895   213A      2.198025  
     214A      2.223442   215A      2.223616   216A      2.299151  
     217A      2.322158   218A      2.325298   219A      2.370912  
     220A      2.385002   221A      2.392411   222A      2.408409  
     223A      2.432721   224A      2.451036   225A      2.471196  
     226A      2.483381   227A      2.486007   228A      2.534207  
     229A      2.535740   230A      2.542833   231A      2.556433  
     232A      2.568323   233A      2.569636   234A      2.596034  
     235A      2.611631   236A      2.632823   237A      2.636932  
     238A      2.641874   239A      2.649152   240A      2.655917  
     241A      2.696418   242A      2.707678   243A      2.748168  
     244A      2.762999   245A      2.763407   246A      2.810383  
     247A      2.827553   248A      2.866361   249A      2.899811  
     250A      2.913344   251A      2.933522   252A      2.962926  
     253A      3.027295   254A      3.050217   255A      3.077374  
     256A      3.082696   257A      3.110015   258A      3.124565  
     259A      3.217157   260A      3.224252   261A      3.233833  
     262A      3.246062   263A      3.312647   264A      3.316971  
     265A      3.431215   266A      3.432587   267A      3.443029  
     268A      3.444255   269A      3.470194   270A      3.546001  
     271A      3.580756   272A      3.597191   273A      3.663636  
     274A      3.671693   275A      3.701818   276A      3.721619  
     277A      3.762909   278A      3.802735   279A      3.832328  
     280A      3.842331   281A      3.858156   282A      3.880188  
     283A      3.929744   284A      3.956427   285A      4.040280  
     286A      4.046706   287A      4.062582   288A      4.084588  
     289A      4.102594   290A      4.124075   291A      4.132661  
     292A      4.160673   293A      4.176134   294A      4.191017  
     295A      4.203080   296A      4.239882   297A      4.245219  
     298A      4.251435   299A      4.259937   300A      4.310266  
     301A      4.343341   302A      4.348912   303A      4.352582  
     304A      4.357638   305A      4.386782   306A      4.409212  
     307A      4.444969   308A      4.461237   309A      4.464143  
     310A      4.546649   311A      4.560545   312A      4.587355  
     313A      4.596055   314A      4.609313   315A      4.624736  
     316A      4.679638   317A      4.721689   318A      4.742459  
     319A      4.780211   320A      4.800623   321A      4.824328  
     322A      4.842486   323A      4.850742   324A      4.863387  
     325A      4.882074   326A      4.899181   327A      4.935190  
     328A      4.978652   329A      4.985854   330A      5.008740  
     331A      5.033336   332A      5.080741   333A      5.100663  
     334A      5.113326   335A      5.165885   336A      5.203741  
     337A      5.210823   338A      5.218552   339A      5.242880  
     340A      5.249239   341A      5.263553   342A      5.333097  
     343A      5.358166   344A      5.381605   345A      5.414938  
     346A      5.456248   347A      5.478632   348A      5.504399  
     349A      5.539625   350A      5.579308   351A      5.607829  
     352A      5.634506   353A      5.645450   354A      5.698506  
     355A      5.772632   356A      5.779863   357A      5.783386  
     358A      5.822019   359A      5.838352   360A      5.848617  
     361A      5.973264   362A      6.017163   363A      6.026838  
     364A      6.079697   365A      6.104900   366A      6.114274  
     367A      6.168437   368A      6.200012   369A      6.270311  
     370A      6.333399   371A      6.369818   372A      6.461832  
     373A      6.519449   374A      6.551195   375A      6.650877  
     376A      6.690556   377A      6.738833   378A      6.792251  
     379A      6.792773   380A      6.864156   381A      6.898937  
     382A      6.949824   383A      6.988540   384A      6.993926  
     385A      7.088118   386A      7.115657   387A      7.197221  
     388A      7.223136   389A      7.283207   390A      7.308205  
     391A      7.336098   392A      7.415641   393A      7.419659  
     394A      7.459600   395A      7.539487   396A      7.586593  
     397A      7.607007   398A      7.645025   399A      7.680539  
     400A      7.723269   401A      7.755126   402A      7.866750  
     403A      7.921104   404A      8.001555   405A      8.162723  
     406A      8.268979   407A      8.463867   408A      8.800969  
     409A     15.520366   410A     16.370431   411A     17.232476  
     412A     17.917562   413A     18.595457   414A     19.081781  

    Final Occupation by Irrep:
              A 
    DOCC [    24 ]

  @DF-RHF Final Energy:  -338.00571901216989

   => Energetics <=

    Nuclear Repulsion Energy =            236.1232128066058920
    One-Electron Energy =                -930.7099644418008211
    Two-Electron Energy =                 356.5810326230250098
    Total Energy =                       -338.0057190121698909

Computation Completed


Properties will be evaluated at   0.000000,   0.000000,   0.000000 [a0]

Properties computed using the SCF density matrix

  Nuclear Dipole Moment: [e a0]
     X:     3.7729      Y:    -0.1425      Z:     0.0000

  Electronic Dipole Moment: [e a0]
     X:    -2.4991      Y:     0.2146      Z:    -0.0000

  Dipole Moment: [e a0]
     X:     1.2738      Y:     0.0721      Z:     0.0000     Total:     1.2758

  Dipole Moment: [D]
     X:     3.2377      Y:     0.1832      Z:     0.0000     Total:     3.2429


*** tstop() called on node54.bme.utexas.edu at Mon Sep  9 20:23:58 2019
Module time:
	user time   =      65.49 seconds =       1.09 minutes
	system time =       1.24 seconds =       0.02 minutes
	total time  =         18 seconds =       0.30 minutes
Total time:
	user time   =      65.49 seconds =       1.09 minutes
	system time =       1.24 seconds =       0.02 minutes
	total time  =         18 seconds =       0.30 minutes

  //>>>>>>>>>>>>>>>>>>>>>>>>>>>>>>>>>>>//
  //            Monomer A HF           //
  //<<<<<<<<<<<<<<<<<<<<<<<<<<<<<<<<<<<//


*** tstart() called on node54.bme.utexas.edu
*** at Mon Sep  9 20:23:58 2019

   => Loading Basis Set <=

    Name: AUG-CC-PVTZ
    Role: ORBITAL
    Keyword: BASIS
    atoms 1, 6              entry C          line   235 file /home/xy3866/psi4conda/share/psi4/basis/aug-cc-pvtz.gbs 
    atoms 2, 5, 7, 9, 11-12 entry H          line    36 file /home/xy3866/psi4conda/share/psi4/basis/aug-cc-pvtz.gbs 
    atoms 3-4               entry O          line   327 file /home/xy3866/psi4conda/share/psi4/basis/aug-cc-pvtz.gbs 
    atoms 8, 10             entry N          line   281 file /home/xy3866/psi4conda/share/psi4/basis/aug-cc-pvtz.gbs 


         ---------------------------------------------------------
                                   SCF
               by Justin Turney, Rob Parrish, Andy Simmonett
                          and Daniel G. A. Smith
                              RHF Reference
                        4 Threads,  30517 MiB Core
         ---------------------------------------------------------

  ==> Geometry <==

    Molecular point group: c1
    Full point group: C1

    Geometry (in Angstrom), charge = 0, multiplicity = 1:

       Center              X                  Y                   Z               Mass       
    ------------   -----------------  -----------------  -----------------  -----------------
         C           -1.878495426813     0.153639191967    -0.000001533938    12.000000000000
         H           -2.972980426813     0.155359191967    -0.000003533938     1.007825032230
         O           -1.230086426813     1.185646191967    -0.000001533938    15.994914619570
         O           -1.410878426813    -1.073412808033     0.000002466062    15.994914619570
         H           -0.391940426813    -1.072280808033     0.000009466062     1.007825032230
      Gh(C)           1.948867473187    -0.184922708033    -0.000002533938    12.000000000000
      Gh(H)           3.030683473187    -0.307147708033    -0.000004533938     1.007825032230
      Gh(N)           1.131076473187    -1.182289608033    -0.000000533938    14.003074004430
      Gh(H)           1.641671473187    -2.055794708033    -0.000000533938     1.007825032230
      Gh(N)           1.534017473187     1.091901391967     0.000002466062    14.003074004430
      Gh(H)           0.538000473187     1.290434391967     0.000001466062     1.007825032230
      Gh(H)           2.200937473187     1.836577391967     0.000004466062     1.007825032230

  Running in c1 symmetry.

  Rotational constants: A =      0.19055  B =      0.07626  C =      0.05446 [cm^-1]
  Rotational constants: A =   5712.53159  B =   2286.13074  C =   1632.72226 [MHz]
  Nuclear repulsion =   69.995387312911120

  Charge       = 0
  Multiplicity = 1
  Electrons    = 24
  Nalpha       = 12
  Nbeta        = 12

  ==> Algorithm <==

  SCF Algorithm Type is DF.
  DIIS enabled.
  MOM disabled.
  Fractional occupation disabled.
  Guess Type is SAD.
  Energy threshold   = 1.00e-08
  Density threshold  = 1.00e-08
  Integral threshold = 0.00e+00

  ==> Primary Basis <==

  Basis Set: AUG-CC-PVTZ
    Blend: AUG-CC-PVTZ
    Number of shells: 138
    Number of basis function: 414
    Number of Cartesian functions: 480
    Spherical Harmonics?: true
    Max angular momentum: 3

   => Loading Basis Set <=

    Name: (AUG-CC-PVTZ AUX)
    Role: JKFIT
    Keyword: DF_BASIS_SCF
    atoms 1, 6              entry C          line   162 file /home/xy3866/psi4conda/share/psi4/basis/aug-cc-pvtz-jkfit.gbs 
    atoms 2, 5, 7, 9, 11-12 entry H          line    70 file /home/xy3866/psi4conda/share/psi4/basis/aug-cc-pvtz-jkfit.gbs 
    atoms 3-4               entry O          line   286 file /home/xy3866/psi4conda/share/psi4/basis/aug-cc-pvtz-jkfit.gbs 
    atoms 8, 10             entry N          line   224 file /home/xy3866/psi4conda/share/psi4/basis/aug-cc-pvtz-jkfit.gbs 

  ==> Pre-Iterations <==

   -------------------------------------------------------
    Irrep   Nso     Nmo     Nalpha   Nbeta   Ndocc  Nsocc
   -------------------------------------------------------
     A        414     414       0       0       0       0
   -------------------------------------------------------
    Total     414     414      12      12      12       0
   -------------------------------------------------------

  ==> Integral Setup <==

  ==> DiskDFJK: Density-Fitted J/K Matrices <==

    J tasked:                  Yes
    K tasked:                  Yes
    wK tasked:                  No
    OpenMP threads:              4
    Integrals threads:           4
    Memory [MiB]:            22888
    Algorithm:                Core
    Integral Cache:           LOAD
    Schwarz Cutoff:          1E-12
    Fitting Condition:       1E-10

   => Auxiliary Basis Set <=

  Basis Set: (AUG-CC-PVTZ AUX)
    Blend: AUG-CC-PVTZ-JKFIT
    Number of shells: 264
    Number of basis function: 900
    Number of Cartesian functions: 1116
    Spherical Harmonics?: true
    Max angular momentum: 4

  Minimum eigenvalue in the overlap matrix is 2.3241787014E-05.
  Using Symmetric Orthogonalization.

  SCF Guess: Superposition of Atomic Densities via on-the-fly atomic UHF.

  ==> Iterations <==

                           Total Energy        Delta E     RMS |[F,P]|

   @DF-RHF iter SAD:  -187.97904367719110   -1.87979e+02   0.00000e+00 
   @DF-RHF iter   1:  -188.73114972852775   -7.52106e-01   1.26154e-03 DIIS
   @DF-RHF iter   2:  -188.79383908707496   -6.26894e-02   8.97772e-04 DIIS
   @DF-RHF iter   3:  -188.83723154247616   -4.33925e-02   1.07172e-04 DIIS
   @DF-RHF iter   4:  -188.83837886251234   -1.14732e-03   5.67326e-05 DIIS
   @DF-RHF iter   5:  -188.83866884281599   -2.89980e-04   1.37178e-05 DIIS
   @DF-RHF iter   6:  -188.83871106084283   -4.22180e-05   5.91072e-06 DIIS
   @DF-RHF iter   7:  -188.83872044364469   -9.38280e-06   2.13384e-06 DIIS
   @DF-RHF iter   8:  -188.83872154739743   -1.10375e-06   6.71013e-07 DIIS
   @DF-RHF iter   9:  -188.83872165860356   -1.11206e-07   1.93526e-07 DIIS
   @DF-RHF iter  10:  -188.83872166761560   -9.01204e-09   4.31191e-08 DIIS
   @DF-RHF iter  11:  -188.83872166800199   -3.86393e-10   7.44966e-09 DIIS
  Energy and wave function converged.


  ==> Post-Iterations <==

    Orbital Energies [Eh]
    ---------------------

    Doubly Occupied:                                                      

       1A    -20.639683     2A    -20.560491     3A    -11.395808  
       4A     -1.478606     5A     -1.367903     6A     -0.898053  
       7A     -0.730457     8A     -0.708489     9A     -0.643551  
      10A     -0.593087    11A     -0.490063    12A     -0.469577  

    Virtual:                                                              

      13A      0.019850    14A      0.033360    15A      0.039086  
      16A      0.051610    17A      0.064856    18A      0.068577  
      19A      0.071185    20A      0.083615    21A      0.084771  
      22A      0.109226    23A      0.112400    24A      0.120662  
      25A      0.127450    26A      0.133847    27A      0.138282  
      28A      0.139691    29A      0.146691    30A      0.159295  
      31A      0.174407    32A      0.182841    33A      0.195476  
      34A      0.196298    35A      0.199979    36A      0.215356  
      37A      0.226020    38A      0.244369    39A      0.251555  
      40A      0.260701    41A      0.268976    42A      0.276419  
      43A      0.279217    44A      0.290892    45A      0.296893  
      46A      0.310174    47A      0.311839    48A      0.320490  
      49A      0.328264    50A      0.339269    51A      0.344546  
      52A      0.350342    53A      0.352965    54A      0.358573  
      55A      0.367735    56A      0.371485    57A      0.376206  
      58A      0.392148    59A      0.412342    60A      0.421241  
      61A      0.421986    62A      0.429439    63A      0.429883  
      64A      0.440639    65A      0.456892    66A      0.462598  
      67A      0.463279    68A      0.480273    69A      0.489756  
      70A      0.510325    71A      0.519289    72A      0.531658  
      73A      0.542949    74A      0.557244    75A      0.566658  
      76A      0.572649    77A      0.592110    78A      0.603820  
      79A      0.620634    80A      0.638884    81A      0.649698  
      82A      0.660645    83A      0.673572    84A      0.689803  
      85A      0.693717    86A      0.697817    87A      0.719194  
      88A      0.729264    89A      0.733422    90A      0.753596  
      91A      0.766818    92A      0.773946    93A      0.776102  
      94A      0.782846    95A      0.797896    96A      0.806469  
      97A      0.814150    98A      0.825049    99A      0.831967  
     100A      0.850974   101A      0.859768   102A      0.862064  
     103A      0.888195   104A      0.892256   105A      0.900652  
     106A      0.902680   107A      0.909052   108A      0.924317  
     109A      0.928123   110A      0.934936   111A      0.942475  
     112A      0.963267   113A      0.977465   114A      0.981049  
     115A      0.994648   116A      1.000986   117A      1.004250  
     118A      1.022323   119A      1.031917   120A      1.044071  
     121A      1.048261   122A      1.060391   123A      1.070611  
     124A      1.088524   125A      1.090324   126A      1.097091  
     127A      1.110973   128A      1.118180   129A      1.144683  
     130A      1.146360   131A      1.156168   132A      1.172820  
     133A      1.182195   134A      1.195411   135A      1.231018  
     136A      1.232386   137A      1.247553   138A      1.259286  
     139A      1.273167   140A      1.295456   141A      1.299597  
     142A      1.314256   143A      1.319457   144A      1.332596  
     145A      1.342054   146A      1.366547   147A      1.394565  
     148A      1.407769   149A      1.417756   150A      1.444176  
     151A      1.445644   152A      1.473902   153A      1.476908  
     154A      1.492197   155A      1.504113   156A      1.506028  
     157A      1.523752   158A      1.528117   159A      1.534737  
     160A      1.552838   161A      1.575045   162A      1.586104  
     163A      1.593305   164A      1.616310   165A      1.634622  
     166A      1.641236   167A      1.642907   168A      1.677076  
     169A      1.680156   170A      1.683903   171A      1.692806  
     172A      1.698114   173A      1.712665   174A      1.726892  
     175A      1.730761   176A      1.732705   177A      1.753947  
     178A      1.764091   179A      1.773505   180A      1.785689  
     181A      1.802150   182A      1.811408   183A      1.819116  
     184A      1.832494   185A      1.878621   186A      1.922439  
     187A      1.924441   188A      1.954300   189A      2.018581  
     190A      2.027786   191A      2.048873   192A      2.064246  
     193A      2.095583   194A      2.101859   195A      2.130406  
     196A      2.143434   197A      2.164819   198A      2.188053  
     199A      2.234517   200A      2.255095   201A      2.286600  
     202A      2.315306   203A      2.345474   204A      2.363156  
     205A      2.372108   206A      2.373360   207A      2.376465  
     208A      2.410967   209A      2.433866   210A      2.443476  
     211A      2.450839   212A      2.492405   213A      2.508159  
     214A      2.525122   215A      2.535915   216A      2.549693  
     217A      2.558213   218A      2.596758   219A      2.597342  
     220A      2.619104   221A      2.620744   222A      2.634708  
     223A      2.639034   224A      2.696025   225A      2.713584  
     226A      2.739008   227A      2.749270   228A      2.769314  
     229A      2.777456   230A      2.794854   231A      2.830852  
     232A      2.841651   233A      2.871117   234A      2.877556  
     235A      2.898722   236A      2.912288   237A      2.931795  
     238A      2.950595   239A      2.954144   240A      2.980935  
     241A      2.994558   242A      3.018854   243A      3.034822  
     244A      3.091068   245A      3.113367   246A      3.123426  
     247A      3.176335   248A      3.179092   249A      3.208945  
     250A      3.211676   251A      3.255753   252A      3.267796  
     253A      3.315885   254A      3.351214   255A      3.413748  
     256A      3.424527   257A      3.434335   258A      3.479997  
     259A      3.579794   260A      3.598817   261A      3.665460  
     262A      3.670053   263A      3.688906   264A      3.693625  
     265A      3.759020   266A      3.813725   267A      3.851919  
     268A      3.929461   269A      3.980405   270A      4.028590  
     271A      4.051201   272A      4.081251   273A      4.113928  
     274A      4.125912   275A      4.175689   276A      4.182803  
     277A      4.221924   278A      4.226740   279A      4.266605  
     280A      4.320222   281A      4.380516   282A      4.427273  
     283A      4.435184   284A      4.447683   285A      4.453637  
     286A      4.479197   287A      4.515601   288A      4.548307  
     289A      4.569935   290A      4.626273   291A      4.646922  
     292A      4.690535   293A      4.701801   294A      4.738211  
     295A      4.775066   296A      4.799512   297A      4.828607  
     298A      4.837267   299A      4.843176   300A      4.871378  
     301A      4.886395   302A      4.903360   303A      4.911867  
     304A      4.928736   305A      4.971626   306A      4.978484  
     307A      5.009948   308A      5.037525   309A      5.041938  
     310A      5.079948   311A      5.102834   312A      5.181193  
     313A      5.187010   314A      5.192365   315A      5.225003  
     316A      5.294356   317A      5.310285   318A      5.323863  
     319A      5.339761   320A      5.348900   321A      5.371418  
     322A      5.391314   323A      5.408331   324A      5.411682  
     325A      5.441581   326A      5.467572   327A      5.483364  
     328A      5.554677   329A      5.602745   330A      5.702308  
     331A      5.733361   332A      5.790898   333A      5.881535  
     334A      5.907805   335A      5.911074   336A      5.968187  
     337A      6.049481   338A      6.103577   339A      6.129485  
     340A      6.204795   341A      6.220446   342A      6.280359  
     343A      6.326392   344A      6.376402   345A      6.407444  
     346A      6.471347   347A      6.482042   348A      6.487606  
     349A      6.581498   350A      6.596946   351A      6.608577  
     352A      6.654248   353A      6.715216   354A      6.722750  
     355A      6.769063   356A      6.811342   357A      6.849128  
     358A      6.869706   359A      6.884557   360A      6.920233  
     361A      6.959069   362A      6.982996   363A      7.100443  
     364A      7.122098   365A      7.170921   366A      7.181181  
     367A      7.208040   368A      7.252846   369A      7.268476  
     370A      7.301374   371A      7.346347   372A      7.410909  
     373A      7.464951   374A      7.508914   375A      7.518777  
     376A      7.541770   377A      7.571370   378A      7.603855  
     379A      7.640070   380A      7.665452   381A      7.690266  
     382A      7.735472   383A      7.745972   384A      7.760872  
     385A      7.772103   386A      7.870713   387A      7.908335  
     388A      8.034468   389A      8.060563   390A      8.108003  
     391A      8.238381   392A      8.352420   393A      8.449398  
     394A      8.542305   395A      8.648614   396A      8.696097  
     397A      9.058257   398A      9.344234   399A      9.434721  
     400A      9.474867   401A      9.560028   402A     10.319215  
     403A     10.808678   404A     11.234135   405A     11.654226  
     406A     11.735668   407A     12.257503   408A     12.924220  
     409A     15.552145   410A     16.377934   411A     18.560747  
     412A     52.096455   413A     59.738676   414A     62.663719  

    Final Occupation by Irrep:
              A 
    DOCC [    12 ]

  @DF-RHF Final Energy:  -188.83872166800199

   => Energetics <=

    Nuclear Repulsion Energy =             69.9953873129111201
    One-Electron Energy =                -397.7166764285762497
    Two-Electron Energy =                 138.8825674476631207
    Total Energy =                       -188.8387216680019947

Computation Completed


Properties will be evaluated at   0.000000,   0.000000,   0.000000 [a0]

Properties computed using the SCF density matrix

  Nuclear Dipole Moment: [e a0]
     X:   -67.5834      Y:     1.7060      Z:     0.0000

  Electronic Dipole Moment: [e a0]
     X:    67.4757      Y:    -2.5374      Z:    -0.0000

  Dipole Moment: [e a0]
     X:    -0.1077      Y:    -0.8314      Z:     0.0000     Total:     0.8383

  Dipole Moment: [D]
     X:    -0.2738      Y:    -2.1132      Z:     0.0000     Total:     2.1309


*** tstop() called on node54.bme.utexas.edu at Mon Sep  9 20:24:08 2019
Module time:
	user time   =      33.92 seconds =       0.57 minutes
	system time =       0.72 seconds =       0.01 minutes
	total time  =         10 seconds =       0.17 minutes
Total time:
	user time   =      99.43 seconds =       1.66 minutes
	system time =       1.96 seconds =       0.03 minutes
	total time  =         28 seconds =       0.47 minutes

  //>>>>>>>>>>>>>>>>>>>>>>>>>>>>>>>>>>>//
  //            Monomer B HF           //
  //<<<<<<<<<<<<<<<<<<<<<<<<<<<<<<<<<<<//


*** tstart() called on node54.bme.utexas.edu
*** at Mon Sep  9 20:24:08 2019

   => Loading Basis Set <=

    Name: AUG-CC-PVTZ
    Role: ORBITAL
    Keyword: BASIS
    atoms 1, 6              entry C          line   235 file /home/xy3866/psi4conda/share/psi4/basis/aug-cc-pvtz.gbs 
    atoms 2, 5, 7, 9, 11-12 entry H          line    36 file /home/xy3866/psi4conda/share/psi4/basis/aug-cc-pvtz.gbs 
    atoms 3-4               entry O          line   327 file /home/xy3866/psi4conda/share/psi4/basis/aug-cc-pvtz.gbs 
    atoms 8, 10             entry N          line   281 file /home/xy3866/psi4conda/share/psi4/basis/aug-cc-pvtz.gbs 


         ---------------------------------------------------------
                                   SCF
               by Justin Turney, Rob Parrish, Andy Simmonett
                          and Daniel G. A. Smith
                              RHF Reference
                        4 Threads,  30517 MiB Core
         ---------------------------------------------------------

  ==> Geometry <==

    Molecular point group: c1
    Full point group: C1

    Geometry (in Angstrom), charge = 0, multiplicity = 1:

       Center              X                  Y                   Z               Mass       
    ------------   -----------------  -----------------  -----------------  -----------------
      Gh(C)          -1.878495426813     0.153639191967    -0.000001533938    12.000000000000
      Gh(H)          -2.972980426813     0.155359191967    -0.000003533938     1.007825032230
      Gh(O)          -1.230086426813     1.185646191967    -0.000001533938    15.994914619570
      Gh(O)          -1.410878426813    -1.073412808033     0.000002466062    15.994914619570
      Gh(H)          -0.391940426813    -1.072280808033     0.000009466062     1.007825032230
         C            1.948867473187    -0.184922708033    -0.000002533938    12.000000000000
         H            3.030683473187    -0.307147708033    -0.000004533938     1.007825032230
         N            1.131076473187    -1.182289608033    -0.000000533938    14.003074004430
         H            1.641671473187    -2.055794708033    -0.000000533938     1.007825032230
         N            1.534017473187     1.091901391967     0.000002466062    14.003074004430
         H            0.538000473187     1.290434391967     0.000001466062     1.007825032230
         H            2.200937473187     1.836577391967     0.000004466062     1.007825032230

  Running in c1 symmetry.

  Rotational constants: A =      0.19055  B =      0.07626  C =      0.05446 [cm^-1]
  Rotational constants: A =   5712.53159  B =   2286.13074  C =   1632.72226 [MHz]
  Nuclear repulsion =   72.334192133535112

  Charge       = 0
  Multiplicity = 1
  Electrons    = 24
  Nalpha       = 12
  Nbeta        = 12

  ==> Algorithm <==

  SCF Algorithm Type is DF.
  DIIS enabled.
  MOM disabled.
  Fractional occupation disabled.
  Guess Type is SAD.
  Energy threshold   = 1.00e-08
  Density threshold  = 1.00e-08
  Integral threshold = 0.00e+00

  ==> Primary Basis <==

  Basis Set: AUG-CC-PVTZ
    Blend: AUG-CC-PVTZ
    Number of shells: 138
    Number of basis function: 414
    Number of Cartesian functions: 480
    Spherical Harmonics?: true
    Max angular momentum: 3

   => Loading Basis Set <=

    Name: (AUG-CC-PVTZ AUX)
    Role: JKFIT
    Keyword: DF_BASIS_SCF
    atoms 1, 6              entry C          line   162 file /home/xy3866/psi4conda/share/psi4/basis/aug-cc-pvtz-jkfit.gbs 
    atoms 2, 5, 7, 9, 11-12 entry H          line    70 file /home/xy3866/psi4conda/share/psi4/basis/aug-cc-pvtz-jkfit.gbs 
    atoms 3-4               entry O          line   286 file /home/xy3866/psi4conda/share/psi4/basis/aug-cc-pvtz-jkfit.gbs 
    atoms 8, 10             entry N          line   224 file /home/xy3866/psi4conda/share/psi4/basis/aug-cc-pvtz-jkfit.gbs 

  ==> Pre-Iterations <==

   -------------------------------------------------------
    Irrep   Nso     Nmo     Nalpha   Nbeta   Ndocc  Nsocc
   -------------------------------------------------------
     A        414     414       0       0       0       0
   -------------------------------------------------------
    Total     414     414      12      12      12       0
   -------------------------------------------------------

  ==> Integral Setup <==

  ==> DiskDFJK: Density-Fitted J/K Matrices <==

    J tasked:                  Yes
    K tasked:                  Yes
    wK tasked:                  No
    OpenMP threads:              4
    Integrals threads:           4
    Memory [MiB]:            22888
    Algorithm:                Core
    Integral Cache:           LOAD
    Schwarz Cutoff:          1E-12
    Fitting Condition:       1E-10

   => Auxiliary Basis Set <=

  Basis Set: (AUG-CC-PVTZ AUX)
    Blend: AUG-CC-PVTZ-JKFIT
    Number of shells: 264
    Number of basis function: 900
    Number of Cartesian functions: 1116
    Spherical Harmonics?: true
    Max angular momentum: 4

  Minimum eigenvalue in the overlap matrix is 2.3241787014E-05.
  Using Symmetric Orthogonalization.

  SCF Guess: Superposition of Atomic Densities via on-the-fly atomic UHF.

  ==> Iterations <==

                           Total Energy        Delta E     RMS |[F,P]|

   @DF-RHF iter SAD:  -148.39929842082506   -1.48399e+02   0.00000e+00 
   @DF-RHF iter   1:  -148.99809001944061   -5.98792e-01   1.32809e-03 DIIS
   @DF-RHF iter   2:  -149.10018732884993   -1.02097e-01   7.81682e-04 DIIS
   @DF-RHF iter   3:  -149.14201448540123   -4.18272e-02   1.09335e-04 DIIS
   @DF-RHF iter   4:  -149.14342568544325   -1.41120e-03   5.40730e-05 DIIS
   @DF-RHF iter   5:  -149.14370273491045   -2.77049e-04   9.80472e-06 DIIS
   @DF-RHF iter   6:  -149.14373118549653   -2.84506e-05   4.60265e-06 DIIS
   @DF-RHF iter   7:  -149.14373583270867   -4.64721e-06   1.85516e-06 DIIS
   @DF-RHF iter   8:  -149.14373675255854   -9.19850e-07   5.49553e-07 DIIS
   @DF-RHF iter   9:  -149.14373683735346   -8.47949e-08   1.68629e-07 DIIS
   @DF-RHF iter  10:  -149.14373684485244   -7.49898e-09   4.17981e-08 DIIS
   @DF-RHF iter  11:  -149.14373684532097   -4.68532e-10   7.94617e-09 DIIS
  Energy and wave function converged.


  ==> Post-Iterations <==

    Orbital Energies [Eh]
    ---------------------

    Doubly Occupied:                                                      

       1A    -15.580675     2A    -15.518354     3A    -11.313916  
       4A     -1.260952     5A     -1.136083     6A     -0.830611  
       7A     -0.749113     8A     -0.640564     9A     -0.618116  
      10A     -0.530871    11A     -0.417496    12A     -0.358861  

    Virtual:                                                              

      13A      0.022775    14A      0.032206    15A      0.037868  
      16A      0.052731    17A      0.061997    18A      0.073617  
      19A      0.074476    20A      0.089486    21A      0.100145  
      22A      0.111146    23A      0.116444    24A      0.120054  
      25A      0.131066    26A      0.135581    27A      0.142954  
      28A      0.153537    29A      0.155481    30A      0.163670  
      31A      0.176864    32A      0.187449    33A      0.192234  
      34A      0.209759    35A      0.212027    36A      0.221610  
      37A      0.228685    38A      0.230089    39A      0.253158  
      40A      0.260275    41A      0.263115    42A      0.276990  
      43A      0.283344    44A      0.288267    45A      0.303706  
      46A      0.312646    47A      0.317810    48A      0.323132  
      49A      0.329503    50A      0.336734    51A      0.340648  
      52A      0.349277    53A      0.361300    54A      0.370296  
      55A      0.377407    56A      0.387144    57A      0.403501  
      58A      0.411762    59A      0.417652    60A      0.426631  
      61A      0.428867    62A      0.430658    63A      0.438177  
      64A      0.455588    65A      0.472446    66A      0.473704  
      67A      0.486167    68A      0.488832    69A      0.514082  
      70A      0.515332    71A      0.521701    72A      0.527685  
      73A      0.532830    74A      0.549061    75A      0.558621  
      76A      0.571716    77A      0.581274    78A      0.595570  
      79A      0.611967    80A      0.647345    81A      0.658657  
      82A      0.662058    83A      0.664634    84A      0.674085  
      85A      0.681429    86A      0.695853    87A      0.699934  
      88A      0.711374    89A      0.717951    90A      0.724832  
      91A      0.743040    92A      0.749887    93A      0.769499  
      94A      0.795914    95A      0.798686    96A      0.840336  
      97A      0.844742    98A      0.861908    99A      0.863726  
     100A      0.867157   101A      0.879450   102A      0.898794  
     103A      0.907750   104A      0.917641   105A      0.928723  
     106A      0.930406   107A      0.932678   108A      0.939497  
     109A      0.945606   110A      0.947621   111A      0.974624  
     112A      0.986211   113A      0.986276   114A      0.999329  
     115A      1.004954   116A      1.006929   117A      1.017662  
     118A      1.036608   119A      1.038963   120A      1.041652  
     121A      1.045838   122A      1.056246   123A      1.070539  
     124A      1.088428   125A      1.089713   126A      1.098476  
     127A      1.109371   128A      1.116972   129A      1.120212  
     130A      1.124409   131A      1.139776   132A      1.154904  
     133A      1.164408   134A      1.181525   135A      1.190550  
     136A      1.199847   137A      1.214337   138A      1.227707  
     139A      1.254655   140A      1.271180   141A      1.277191  
     142A      1.292153   143A      1.317119   144A      1.323263  
     145A      1.324712   146A      1.340885   147A      1.369588  
     148A      1.371584   149A      1.381758   150A      1.394469  
     151A      1.408040   152A      1.413615   153A      1.434055  
     154A      1.444464   155A      1.447398   156A      1.469664  
     157A      1.486181   158A      1.490449   159A      1.490933  
     160A      1.522297   161A      1.546680   162A      1.563397  
     163A      1.569790   164A      1.575151   165A      1.601057  
     166A      1.613958   167A      1.633144   168A      1.663694  
     169A      1.678822   170A      1.716197   171A      1.716345  
     172A      1.729437   173A      1.753595   174A      1.768420  
     175A      1.798407   176A      1.803206   177A      1.830996  
     178A      1.848508   179A      1.873444   180A      1.882138  
     181A      1.887893   182A      1.898802   183A      1.908664  
     184A      1.916585   185A      1.935451   186A      1.970016  
     187A      1.975648   188A      2.009277   189A      2.021109  
     190A      2.026854   191A      2.064172   192A      2.064677  
     193A      2.110081   194A      2.122323   195A      2.124511  
     196A      2.145892   197A      2.158182   198A      2.172469  
     199A      2.176848   200A      2.180525   201A      2.210142  
     202A      2.211405   203A      2.252405   204A      2.307172  
     205A      2.317971   206A      2.375961   207A      2.384662  
     208A      2.422767   209A      2.435637   210A      2.462698  
     211A      2.464505   212A      2.473736   213A      2.476461  
     214A      2.530822   215A      2.538171   216A      2.549275  
     217A      2.600354   218A      2.603939   219A      2.636580  
     220A      2.646419   221A      2.649904   222A      2.660405  
     223A      2.671596   224A      2.686531   225A      2.691707  
     226A      2.718383   227A      2.719971   228A      2.766897  
     229A      2.785396   230A      2.812890   231A      2.832991  
     232A      2.844648   233A      2.872295   234A      2.879281  
     235A      2.889128   236A      2.927532   237A      2.940855  
     238A      2.961007   239A      3.004763   240A      3.007962  
     241A      3.092477   242A      3.129407   243A      3.149933  
     244A      3.189479   245A      3.199331   246A      3.232450  
     247A      3.251228   248A      3.316033   249A      3.380002  
     250A      3.424148   251A      3.430896   252A      3.465916  
     253A      3.493335   254A      3.507904   255A      3.562318  
     256A      3.580029   257A      3.602127   258A      3.618090  
     259A      3.623553   260A      3.667447   261A      3.702914  
     262A      3.725267   263A      3.774575   264A      3.841605  
     265A      3.858321   266A      3.859831   267A      3.875000  
     268A      3.901825   269A      3.927045   270A      3.986412  
     271A      3.993442   272A      4.042399   273A      4.080099  
     274A      4.083609   275A      4.096441   276A      4.136534  
     277A      4.163746   278A      4.166103   279A      4.189772  
     280A      4.204373   281A      4.211511   282A      4.228201  
     283A      4.299888   284A      4.321932   285A      4.329067  
     286A      4.351639   287A      4.366953   288A      4.375957  
     289A      4.398445   290A      4.415085   291A      4.461396  
     292A      4.554986   293A      4.565614   294A      4.601928  
     295A      4.632693   296A      4.643426   297A      4.661785  
     298A      4.681238   299A      4.737233   300A      4.742426  
     301A      4.768621   302A      4.815755   303A      4.826172  
     304A      4.836655   305A      4.857962   306A      4.884887  
     307A      4.896689   308A      4.916082   309A      4.924376  
     310A      4.945850   311A      4.990656   312A      5.001799  
     313A      5.019301   314A      5.051796   315A      5.072278  
     316A      5.092015   317A      5.132181   318A      5.168966  
     319A      5.173056   320A      5.213756   321A      5.248494  
     322A      5.256776   323A      5.283470   324A      5.304236  
     325A      5.334688   326A      5.380074   327A      5.410324  
     328A      5.449507   329A      5.454384   330A      5.475478  
     331A      5.490753   332A      5.495251   333A      5.527575  
     334A      5.566307   335A      5.626889   336A      5.648126  
     337A      5.649818   338A      5.666544   339A      5.681652  
     340A      5.731251   341A      5.791121   342A      5.802986  
     343A      5.854103   344A      5.868956   345A      5.908961  
     346A      6.006004   347A      6.006148   348A      6.017888  
     349A      6.065938   350A      6.117754   351A      6.133591  
     352A      6.134171   353A      6.187877   354A      6.257576  
     355A      6.287047   356A      6.325670   357A      6.363898  
     358A      6.541685   359A      6.570541   360A      6.625047  
     361A      6.664272   362A      6.759690   363A      6.762443  
     364A      6.837349   365A      7.007621   366A      7.056680  
     367A      7.121562   368A      7.216833   369A      7.341874  
     370A      7.492895   371A      7.521976   372A      7.609770  
     373A      7.705584   374A      7.745130   375A      7.799390  
     376A      7.845776   377A      7.860134   378A      7.879747  
     379A      7.964098   380A      8.096174   381A      8.103863  
     382A      8.126205   383A      8.216571   384A      8.345481  
     385A      8.362205   386A      8.556031   387A      8.784097  
     388A      8.963105   389A      9.285147   390A      9.770623  
     391A      9.842246   392A      9.910503   393A     10.011420  
     394A     10.038337   395A     10.086555   396A     10.397296  
     397A     10.440640   398A     10.507122   399A     10.969852  
     400A     11.210294   401A     11.858459   402A     11.905529  
     403A     12.153301   404A     12.542765   405A     13.043042  
     406A     13.483474   407A     14.062928   408A     14.483487  
     409A     17.240044   410A     17.950342   411A     19.084536  
     412A     51.796778   413A     65.058411   414A     68.506860  

    Final Occupation by Irrep:
              A 
    DOCC [    12 ]

  @DF-RHF Final Energy:  -149.14373684532097

   => Energetics <=

    Nuclear Repulsion Energy =             72.3341921335351117
    One-Electron Energy =                -345.0446284616201638
    Two-Electron Energy =                 123.5666994827640934
    Total Energy =                       -149.1437368453209729

Computation Completed


Properties will be evaluated at   0.000000,   0.000000,   0.000000 [a0]

Properties computed using the SCF density matrix

  Nuclear Dipole Moment: [e a0]
     X:    71.3564      Y:    -1.8485      Z:    -0.0000

  Electronic Dipole Moment: [e a0]
     X:   -70.4431      Y:     2.7380      Z:     0.0000

  Dipole Moment: [e a0]
     X:     0.9133      Y:     0.8895      Z:    -0.0000     Total:     1.2749

  Dipole Moment: [D]
     X:     2.3213      Y:     2.2609      Z:    -0.0000     Total:     3.2404


*** tstop() called on node54.bme.utexas.edu at Mon Sep  9 20:24:17 2019
Module time:
	user time   =      34.13 seconds =       0.57 minutes
	system time =       0.67 seconds =       0.01 minutes
	total time  =          9 seconds =       0.15 minutes
Total time:
	user time   =     133.58 seconds =       2.23 minutes
	system time =       2.63 seconds =       0.04 minutes
	total time  =         37 seconds =       0.62 minutes
  Constructing Basis Sets for SAPT...

   => Loading Basis Set <=

    Name: (AUG-CC-PVTZ AUX)
    Role: RIFIT
    Keyword: DF_BASIS_SAPT
    atoms 1, 6              entry C          line   148 file /home/xy3866/psi4conda/share/psi4/basis/aug-cc-pvtz-ri.gbs 
    atoms 2, 5, 7, 9, 11-12 entry H          line    30 file /home/xy3866/psi4conda/share/psi4/basis/aug-cc-pvtz-ri.gbs 
    atoms 3-4               entry O          line   264 file /home/xy3866/psi4conda/share/psi4/basis/aug-cc-pvtz-ri.gbs 
    atoms 8, 10             entry N          line   206 file /home/xy3866/psi4conda/share/psi4/basis/aug-cc-pvtz-ri.gbs 


  //>>>>>>>>>>>>>>>>>>>>>>>>>>>>>>>>>>>//
  //               SAPT2+              //
  //<<<<<<<<<<<<<<<<<<<<<<<<<<<<<<<<<<<//


*** tstart() called on node54.bme.utexas.edu
*** at Mon Sep  9 20:24:17 2019

        SAPT2+  
    Ed Hohenstein
     6 June 2009

      Orbital Information
  --------------------------
    NSO        =       414
    NMO        =       414
    NRI        =       912
    NOCC A     =        12
    NOCC B     =        12
    FOCC A     =         3
    FOCC B     =         3
    NVIR A     =       402
    NVIR B     =       402

    Estimated memory usage: 1737.6 MB

    Natural Orbital Cutoff:   1.000E-06
    Disp(T3) Truncation:            Yes
    CCD (vv|vv) Truncation:         Yes
    MBPT T2 Truncation:             Yes

    Monomer A: 235 virtual orbitals dropped
    Monomer B: 198 virtual orbitals dropped

    Elst10,r            =    -0.072107836689 [Eh]
    Exch10 (S^2)        =     0.087726768956 [Eh]
    Exch10              =     0.090818130233 [Eh]
    Ind20,r (A<-B)      =    -0.016471978611 [Eh]
    Ind20,r (B<-A)      =    -0.035385034592 [Eh]
    Ind20,r             =    -0.051857013202 [Eh]
    Exch-Ind20,r (A<-B) =     0.009686676652 [Eh]
    Exch-Ind20,r (B<-A) =     0.018660455605 [Eh]
    Exch-Ind20,r        =     0.028347132257 [Eh]
    Disp20              =    -0.024442653564 [Eh]
    Disp20 (NO)         =    -0.021546553086 [Eh]
    Exch-Disp20         =     0.005435945635 [Eh]
    Elst12,r            =     0.001286908738 [Eh]
    Exch11              =     0.001118236453 [Eh]
    Exch12              =     0.007135252622 [Eh]
    Ind22               =    -0.005483757668 [Eh]
    Disp21              =     0.002319479921 [Eh]
    Disp22 (SDQ)        =    -0.000274569057 [Eh]

    (i =   1 of   9)         21 seconds
    (i =   2 of   9)         43 seconds
    (i =   3 of   9)         64 seconds
    (i =   4 of   9)         85 seconds
    (i =   5 of   9)        107 seconds
    (i =   6 of   9)        128 seconds
    (i =   7 of   9)        150 seconds
    (i =   8 of   9)        171 seconds
    (i =   9 of   9)        192 seconds

    Disp220 (T)         =    -0.002112688576 [Eh]

    (i =   1 of   9)         27 seconds
    (i =   2 of   9)         54 seconds
    (i =   3 of   9)         82 seconds
    (i =   4 of   9)        109 seconds
    (i =   5 of   9)        136 seconds
    (i =   6 of   9)        163 seconds
    (i =   7 of   9)        190 seconds
    (i =   8 of   9)        217 seconds
    (i =   9 of   9)        243 seconds

    Disp202 (T)         =    -0.001734026972 [Eh]

    Disp22 (T)          =    -0.003846715549 [Eh]

    Est. Disp220 (T)    =    -0.002396657821 [Eh]
    Est. Disp202 (T)    =    -0.001967099813 [Eh]

    Est. Disp22 (T)     =    -0.004363757634 [Eh]

    SAPT Results 
  --------------------------------------------------------------------------------------------------------
    Electrostatics                -70.82092795 [mEh]     -44.44080323 [kcal/mol]    -185.94032072 [kJ/mol]
      Elst10,r                    -72.10783669 [mEh]     -45.24835066 [kcal/mol]    -189.31909914 [kJ/mol]
      Elst12,r                      1.28690874 [mEh]       0.80754743 [kcal/mol]       3.37877843 [kJ/mol]

    Exchange                       99.07161931 [mEh]      62.16837970 [kcal/mol]     260.11250066 [kJ/mol]
      Exch10                       90.81813023 [mEh]      56.98923711 [kcal/mol]     238.44296808 [kJ/mol]
      Exch10(S^2)                  87.72676896 [mEh]      55.04937862 [kcal/mol]     230.32660016 [kJ/mol]
      Exch11(S^2)                   1.11823645 [mEh]       0.70170397 [kcal/mol]       2.93592940 [kJ/mol]
      Exch12(S^2)                   7.13525262 [mEh]       4.47743862 [kcal/mol]      18.73360318 [kJ/mol]

    Induction                     -44.45690723 [mEh]     -27.89713046 [kcal/mol]    -116.72159384 [kJ/mol]
      Ind20,r                     -51.85701320 [mEh]     -32.54076707 [kcal/mol]    -136.15056941 [kJ/mol]
      Ind22                        -5.48375767 [mEh]      -3.44110989 [kcal/mol]     -14.39760377 [kJ/mol]
      Exch-Ind20,r                 28.34713226 [mEh]      17.78809405 [kcal/mol]      74.42538549 [kJ/mol]
      Exch-Ind22                    2.99764283 [mEh]       1.88104928 [kcal/mol]       7.87031017 [kJ/mol]
      delta HF,r (2)              -18.46091145 [mEh]     -11.58439683 [kcal/mol]     -48.46911632 [kJ/mol]

    Dispersion                    -21.32555470 [mEh]     -13.38198761 [kcal/mol]     -55.99023615 [kJ/mol]
      Disp20                      -24.44265356 [mEh]     -15.33799668 [kcal/mol]     -64.17417809 [kJ/mol]
      Disp21                        2.31947992 [mEh]       1.45549562 [kcal/mol]       6.08979369 [kJ/mol]
      Disp22 (SDQ)                 -0.27456906 [mEh]      -0.17229468 [kcal/mol]      -0.72088096 [kJ/mol]
      Disp22 (T)                   -3.84671555 [mEh]      -2.41385045 [kcal/mol]     -10.09955028 [kJ/mol]
      Est. Disp22 (T)              -4.36375763 [mEh]      -2.73829926 [kcal/mol]     -11.45704409 [kJ/mol]
      Exch-Disp20                   5.43594564 [mEh]       3.41110739 [kcal/mol]      14.27207330 [kJ/mol]

  Total HF                        -23.26049885 [mEh]     -14.59618339 [kcal/mol]     -61.07043131 [kJ/mol]
  Total SAPT0                     -42.26720678 [mEh]     -26.52307268 [kcal/mol]    -110.97253610 [kJ/mol]
  Total SAPT2                     -35.21292380 [mEh]     -22.09644328 [kcal/mol]     -92.45151870 [kJ/mol]
  Total SAPT2+                    -37.53177057 [mEh]     -23.55154160 [kcal/mol]     -98.53965005 [kJ/mol]

  Special recipe for scaled SAPT0 (see Manual):
    Electrostatics sSAPT0         -72.10783669 [mEh]     -45.24835066 [kcal/mol]    -189.31909914 [kJ/mol]
    Exchange sSAPT0                90.81813023 [mEh]      56.98923711 [kcal/mol]     238.44296808 [kJ/mol]
    Induction sSAPT0              -38.86721883 [mEh]     -24.38954803 [kcal/mol]    -102.04586898 [kJ/mol]
    Dispersion sSAPT0             -18.41155576 [mEh]     -11.55342567 [kcal/mol]     -48.33953300 [kJ/mol]
  Total sSAPT0                    -38.56848105 [mEh]     -24.20208725 [kcal/mol]    -101.26153304 [kJ/mol]
  --------------------------------------------------------------------------------------------------------

*** tstop() called on node54.bme.utexas.edu at Mon Sep  9 20:35:37 2019
Module time:
	user time   =    2432.86 seconds =      40.55 minutes
	system time =      48.21 seconds =       0.80 minutes
	total time  =        680 seconds =      11.33 minutes
Total time:
	user time   =    2566.80 seconds =      42.78 minutes
	system time =      50.85 seconds =       0.85 minutes
	total time  =        717 seconds =      11.95 minutes

    Psi4 stopped on: Monday, 09 September 2019 08:35PM
    Psi4 wall time for execution: 0:11:57.07

*** Psi4 exiting successfully. Buy a developer a beer!
