
    -----------------------------------------------------------------------
          Psi4: An Open-Source Ab Initio Electronic Structure Package
                               Psi4 1.3.2 release

                         Git: Rev {HEAD} ecbda83 


    R. M. Parrish, L. A. Burns, D. G. A. Smith, A. C. Simmonett,
    A. E. DePrince III, E. G. Hohenstein, U. Bozkaya, A. Yu. Sokolov,
    R. Di Remigio, R. M. Richard, J. F. Gonthier, A. M. James,
    H. R. McAlexander, A. Kumar, M. Saitow, X. Wang, B. P. Pritchard,
    P. Verma, H. F. Schaefer III, K. Patkowski, R. A. King, E. F. Valeev,
    F. A. Evangelista, J. M. Turney, T. D. Crawford, and C. D. Sherrill,
    J. Chem. Theory Comput. 13(7) pp 3185--3197 (2017).
    (doi: 10.1021/acs.jctc.7b00174)


                         Additional Contributions by
    P. Kraus, H. Kruse, M. H. Lechner, M. C. Schieber, R. A. Shaw,
    A. Alenaizan, R. Galvelis, Z. L. Glick, S. Lehtola, and J. P. Misiewicz

    -----------------------------------------------------------------------


    Psi4 started on: Monday, 09 September 2019 05:28PM

    Process ID: 52411
    Host:       node54.bme.utexas.edu
    PSIDATADIR: /home/xy3866/psi4conda/share/psi4
    Memory:     500.0 MiB
    Threads:    4
    
  ==> Input File <==

--------------------------------------------------------------------------
#psi4
#
memory 32 gb

molecule  {
0 1
  C       -2.0482690     0.2828850     0.0000130
  H       -3.1457830     0.3491130    -0.0000080
  O       -1.3512910     1.2933720    -0.0000010
  N       -1.5923150    -0.9782630     0.0000040
  H       -0.5837530    -1.1752650     0.0000030
  H       -2.2528990    -1.7321960    -0.0000070
--
0 1
  C        2.3532951    -0.2875665     0.0000039
  H        3.4432071    -0.3138345    -0.0000001
  N        1.6213891    -1.3492255     0.0000019
  H        2.2211541    -2.1655445    -0.0000041
  N        1.8411201     0.9573755    -0.0000001
  H        0.8344801     1.1073515    -0.0000011
  H        2.4570071     1.7449285    -0.0000051
units angstrom
no_reorient  #important for SAPT in psi4, default
symmetry c1  #important for SAPT in psi4, default
}

set {
basis aug-cc-pVTZ
scf_type DF
freeze_core True
}
energy('sapt2+')
--------------------------------------------------------------------------

  Memory set to  29.802 GiB by Python driver.

  //>>>>>>>>>>>>>>>>>>>>>>>>>>>>>>>>>>>//
  //              Dimer HF             //
  //<<<<<<<<<<<<<<<<<<<<<<<<<<<<<<<<<<<//


*** tstart() called on node54.bme.utexas.edu
*** at Mon Sep  9 17:28:39 2019

   => Loading Basis Set <=

    Name: AUG-CC-PVTZ
    Role: ORBITAL
    Keyword: BASIS
    atoms 1, 7                 entry C          line   235 file /home/xy3866/psi4conda/share/psi4/basis/aug-cc-pvtz.gbs 
    atoms 2, 5-6, 8, 10, 12-13 entry H          line    36 file /home/xy3866/psi4conda/share/psi4/basis/aug-cc-pvtz.gbs 
    atoms 3                    entry O          line   327 file /home/xy3866/psi4conda/share/psi4/basis/aug-cc-pvtz.gbs 
    atoms 4, 9, 11             entry N          line   281 file /home/xy3866/psi4conda/share/psi4/basis/aug-cc-pvtz.gbs 


         ---------------------------------------------------------
                                   SCF
               by Justin Turney, Rob Parrish, Andy Simmonett
                          and Daniel G. A. Smith
                              RHF Reference
                        4 Threads,  30517 MiB Core
         ---------------------------------------------------------

  ==> Geometry <==

    Molecular point group: c1
    Full point group: C1

    Geometry (in Angstrom), charge = 0, multiplicity = 1:

       Center              X                  Y                   Z               Mass       
    ------------   -----------------  -----------------  -----------------  -----------------
         C           -2.174384141487     0.291386622123     0.000010243986    12.000000000000
         H           -3.271898141487     0.357614622123    -0.000010756014     1.007825032230
         O           -1.477406141487     1.301873622123    -0.000003756014    15.994914619570
         N           -1.718430141487    -0.969761377877     0.000001243986    14.003074004430
         H           -0.709868141487    -1.166763377877     0.000000243986     1.007825032230
         H           -2.379014141487    -1.723694377877    -0.000009756014     1.007825032230
         C            2.227179958513    -0.279064877877     0.000001143986    12.000000000000
         H            3.317091958513    -0.305332877877    -0.000002856014     1.007825032230
         N            1.495273958513    -1.340723877877    -0.000000856014    14.003074004430
         H            2.095038958513    -2.157042877877    -0.000006856014     1.007825032230
         N            1.715004958513     0.965877122123    -0.000002856014    14.003074004430
         H            0.708364958513     1.115853122123    -0.000003856014     1.007825032230
         H            2.330891958513     1.753430122123    -0.000007856014     1.007825032230

  Running in c1 symmetry.

  Rotational constants: A =      0.18458  B =      0.05504  C =      0.04240 [cm^-1]
  Rotational constants: A =   5533.56712  B =   1650.04542  C =   1271.03697 [MHz]
  Nuclear repulsion =  222.883029431117109

  Charge       = 0
  Multiplicity = 1
  Electrons    = 48
  Nalpha       = 24
  Nbeta        = 24

  ==> Algorithm <==

  SCF Algorithm Type is DF.
  DIIS enabled.
  MOM disabled.
  Fractional occupation disabled.
  Guess Type is SAD.
  Energy threshold   = 1.00e-08
  Density threshold  = 1.00e-08
  Integral threshold = 0.00e+00

  ==> Primary Basis <==

  Basis Set: AUG-CC-PVTZ
    Blend: AUG-CC-PVTZ
    Number of shells: 147
    Number of basis function: 437
    Number of Cartesian functions: 505
    Spherical Harmonics?: true
    Max angular momentum: 3

   => Loading Basis Set <=

    Name: (AUG-CC-PVTZ AUX)
    Role: JKFIT
    Keyword: DF_BASIS_SCF
    atoms 1, 7                 entry C          line   162 file /home/xy3866/psi4conda/share/psi4/basis/aug-cc-pvtz-jkfit.gbs 
    atoms 2, 5-6, 8, 10, 12-13 entry H          line    70 file /home/xy3866/psi4conda/share/psi4/basis/aug-cc-pvtz-jkfit.gbs 
    atoms 3                    entry O          line   286 file /home/xy3866/psi4conda/share/psi4/basis/aug-cc-pvtz-jkfit.gbs 
    atoms 4, 9, 11             entry N          line   224 file /home/xy3866/psi4conda/share/psi4/basis/aug-cc-pvtz-jkfit.gbs 

  ==> Pre-Iterations <==

   -------------------------------------------------------
    Irrep   Nso     Nmo     Nalpha   Nbeta   Ndocc  Nsocc
   -------------------------------------------------------
     A        437     437       0       0       0       0
   -------------------------------------------------------
    Total     437     437      24      24      24       0
   -------------------------------------------------------

  ==> Integral Setup <==

  ==> DiskDFJK: Density-Fitted J/K Matrices <==

    J tasked:                  Yes
    K tasked:                  Yes
    wK tasked:                  No
    OpenMP threads:              4
    Integrals threads:           4
    Memory [MiB]:            22888
    Algorithm:                Core
    Integral Cache:           SAVE
    Schwarz Cutoff:          1E-12
    Fitting Condition:       1E-10

   => Auxiliary Basis Set <=

  Basis Set: (AUG-CC-PVTZ AUX)
    Blend: AUG-CC-PVTZ-JKFIT
    Number of shells: 278
    Number of basis function: 946
    Number of Cartesian functions: 1171
    Spherical Harmonics?: true
    Max angular momentum: 4

  Minimum eigenvalue in the overlap matrix is 2.7625650370E-05.
  Using Symmetric Orthogonalization.

  SCF Guess: Superposition of Atomic Densities via on-the-fly atomic UHF.

  ==> Iterations <==

                           Total Energy        Delta E     RMS |[F,P]|

   @DF-RHF iter SAD:  -316.71541168427331   -3.16715e+02   0.00000e+00 
   @DF-RHF iter   1:  -317.92012926074983   -1.20472e+00   1.69214e-03 DIIS
   @DF-RHF iter   2:  -318.08970998758423   -1.69581e-01   1.02437e-03 DIIS
   @DF-RHF iter   3:  -318.16136394160048   -7.16540e-02   1.55741e-04 DIIS
   @DF-RHF iter   4:  -318.16392752862077   -2.56359e-03   7.19195e-05 DIIS
   @DF-RHF iter   5:  -318.16445071078124   -5.23182e-04   1.37618e-05 DIIS
   @DF-RHF iter   6:  -318.16449825732633   -4.75465e-05   6.66361e-06 DIIS
   @DF-RHF iter   7:  -318.16450877424523   -1.05169e-05   2.92567e-06 DIIS
   @DF-RHF iter   8:  -318.16451110553908   -2.33129e-06   1.06082e-06 DIIS
   @DF-RHF iter   9:  -318.16451138974833   -2.84209e-07   4.17509e-07 DIIS
   @DF-RHF iter  10:  -318.16451143486609   -4.51178e-08   1.33698e-07 DIIS
   @DF-RHF iter  11:  -318.16451143936092   -4.49484e-09   3.73816e-08 DIIS
   @DF-RHF iter  12:  -318.16451143970568   -3.44755e-10   9.26587e-09 DIIS
  Energy and wave function converged.


  ==> Post-Iterations <==

    Orbital Energies [Eh]
    ---------------------

    Doubly Occupied:                                                      

       1A    -20.521823     2A    -15.579727     3A    -15.568914  
       4A    -15.523543     5A    -11.349172     6A    -11.318117  
       7A     -1.372881     8A     -1.255698     9A     -1.209475  
      10A     -1.137893    11A     -0.841596    12A     -0.824807  
      13A     -0.744129    14A     -0.737411    15A     -0.671252  
      16A     -0.632843    17A     -0.616158    18A     -0.596716  
      19A     -0.562794    20A     -0.525881    21A     -0.441813  
      22A     -0.421604    23A     -0.410267    24A     -0.360041  

    Virtual:                                                              

      25A      0.026886    26A      0.030623    27A      0.039209  
      28A      0.049345    29A      0.055708    30A      0.074847  
      31A      0.079642    32A      0.085801    33A      0.089470  
      34A      0.105890    35A      0.120882    36A      0.129016  
      37A      0.132562    38A      0.134538    39A      0.137095  
      40A      0.144614    41A      0.147622    42A      0.153957  
      43A      0.161073    44A      0.173269    45A      0.174141  
      46A      0.187584    47A      0.202094    48A      0.205687  
      49A      0.214013    50A      0.217418    51A      0.246242  
      52A      0.250183    53A      0.253345    54A      0.255782  
      55A      0.270057    56A      0.279339    57A      0.286673  
      58A      0.291578    59A      0.295229    60A      0.306946  
      61A      0.313051    62A      0.314918    63A      0.321661  
      64A      0.324136    65A      0.339803    66A      0.350098  
      67A      0.359679    68A      0.365021    69A      0.365389  
      70A      0.372844    71A      0.382709    72A      0.387786  
      73A      0.393665    74A      0.396275    75A      0.405898  
      76A      0.412984    77A      0.423399    78A      0.427083  
      79A      0.436205    80A      0.444096    81A      0.445702  
      82A      0.448863    83A      0.462107    84A      0.492027  
      85A      0.498423    86A      0.504034    87A      0.519653  
      88A      0.529001    89A      0.531995    90A      0.536895  
      91A      0.549553    92A      0.564122    93A      0.569385  
      94A      0.573291    95A      0.587625    96A      0.594269  
      97A      0.610909    98A      0.617736    99A      0.633536  
     100A      0.641878   101A      0.646201   102A      0.664741  
     103A      0.668558   104A      0.677307   105A      0.682434  
     106A      0.689354   107A      0.700908   108A      0.724331  
     109A      0.726468   110A      0.731653   111A      0.748059  
     112A      0.762438   113A      0.765687   114A      0.766842  
     115A      0.773184   116A      0.798628   117A      0.806276  
     118A      0.839160   119A      0.849930   120A      0.860654  
     121A      0.866836   122A      0.873828   123A      0.890329  
     124A      0.907581   125A      0.908091   126A      0.911819  
     127A      0.919373   128A      0.922847   129A      0.932825  
     130A      0.940391   131A      0.942281   132A      0.948821  
     133A      0.964623   134A      0.970985   135A      0.973299  
     136A      0.974971   137A      0.979388   138A      0.993135  
     139A      1.014607   140A      1.023088   141A      1.033707  
     142A      1.037606   143A      1.046933   144A      1.049774  
     145A      1.068799   146A      1.074094   147A      1.078673  
     148A      1.094155   149A      1.104192   150A      1.104386  
     151A      1.110595   152A      1.118589   153A      1.126640  
     154A      1.137883   155A      1.145577   156A      1.169451  
     157A      1.182019   158A      1.186486   159A      1.197672  
     160A      1.208967   161A      1.228525   162A      1.234837  
     163A      1.243880   164A      1.248713   165A      1.253941  
     166A      1.278709   167A      1.282396   168A      1.297088  
     169A      1.303332   170A      1.324385   171A      1.329244  
     172A      1.340449   173A      1.345361   174A      1.359128  
     175A      1.360050   176A      1.381600   177A      1.392209  
     178A      1.401076   179A      1.402967   180A      1.415771  
     181A      1.433529   182A      1.450414   183A      1.456726  
     184A      1.466157   185A      1.467738   186A      1.471979  
     187A      1.482705   188A      1.506152   189A      1.510259  
     190A      1.518970   191A      1.536177   192A      1.554231  
     193A      1.574611   194A      1.585662   195A      1.586424  
     196A      1.613206   197A      1.619691   198A      1.643372  
     199A      1.655299   200A      1.660412   201A      1.670186  
     202A      1.699157   203A      1.712044   204A      1.728001  
     205A      1.752467   206A      1.771896   207A      1.793595  
     208A      1.795839   209A      1.822186   210A      1.854429  
     211A      1.858188   212A      1.941691   213A      1.947324  
     214A      1.958199   215A      1.964554   216A      1.970475  
     217A      1.992822   218A      2.003069   219A      2.024563  
     220A      2.053812   221A      2.067280   222A      2.084485  
     223A      2.092439   224A      2.106166   225A      2.118541  
     226A      2.125450   227A      2.134410   228A      2.137444  
     229A      2.172150   230A      2.173356   231A      2.217362  
     232A      2.225276   233A      2.232552   234A      2.237490  
     235A      2.284237   236A      2.307165   237A      2.317429  
     238A      2.336111   239A      2.347546   240A      2.374407  
     241A      2.399546   242A      2.424622   243A      2.430951  
     244A      2.437130   245A      2.440106   246A      2.466753  
     247A      2.498928   248A      2.518351   249A      2.533045  
     250A      2.549133   251A      2.573417   252A      2.578728  
     253A      2.595044   254A      2.595701   255A      2.625751  
     256A      2.630511   257A      2.669090   258A      2.676986  
     259A      2.689439   260A      2.691327   261A      2.700711  
     262A      2.721145   263A      2.737690   264A      2.764958  
     265A      2.824836   266A      2.831685   267A      2.874350  
     268A      2.912970   269A      2.933212   270A      2.940414  
     271A      2.964777   272A      3.031929   273A      3.033435  
     274A      3.112002   275A      3.132973   276A      3.179916  
     277A      3.191293   278A      3.216710   279A      3.293177  
     280A      3.376614   281A      3.382007   282A      3.391145  
     283A      3.410274   284A      3.438923   285A      3.473981  
     286A      3.561015   287A      3.575437   288A      3.601462  
     289A      3.617863   290A      3.671494   291A      3.687524  
     292A      3.714283   293A      3.728020   294A      3.768129  
     295A      3.804322   296A      3.814758   297A      3.816484  
     298A      3.848328   299A      3.877414   300A      3.924363  
     301A      3.942736   302A      3.969797   303A      4.046431  
     304A      4.052210   305A      4.071228   306A      4.081285  
     307A      4.098858   308A      4.112389   309A      4.114070  
     310A      4.119135   311A      4.172718   312A      4.175731  
     313A      4.188590   314A      4.198373   315A      4.212753  
     316A      4.234476   317A      4.244105   318A      4.277419  
     319A      4.291235   320A      4.315657   321A      4.339182  
     322A      4.355531   323A      4.378071   324A      4.379901  
     325A      4.385378   326A      4.416985   327A      4.435080  
     328A      4.448610   329A      4.471505   330A      4.500793  
     331A      4.546270   332A      4.550978   333A      4.556965  
     334A      4.565555   335A      4.599355   336A      4.649696  
     337A      4.665067   338A      4.697824   339A      4.710353  
     340A      4.739352   341A      4.760198   342A      4.793100  
     343A      4.796953   344A      4.816215   345A      4.852278  
     346A      4.868875   347A      4.874834   348A      4.884286  
     349A      4.902792   350A      4.906967   351A      4.926386  
     352A      4.948187   353A      4.970044   354A      4.999258  
     355A      5.016376   356A      5.078297   357A      5.082682  
     358A      5.120893   359A      5.140875   360A      5.193224  
     361A      5.209407   362A      5.219863   363A      5.225026  
     364A      5.233331   365A      5.240315   366A      5.293296  
     367A      5.342466   368A      5.365505   369A      5.403792  
     370A      5.410133   371A      5.427186   372A      5.450357  
     373A      5.489939   374A      5.517984   375A      5.548833  
     376A      5.580634   377A      5.587964   378A      5.635533  
     379A      5.637386   380A      5.663449   381A      5.691343  
     382A      5.693766   383A      5.721894   384A      5.731423  
     385A      5.750866   386A      5.778290   387A      5.817380  
     388A      5.849299   389A      5.862040   390A      5.919307  
     391A      5.960590   392A      5.964507   393A      6.069393  
     394A      6.082929   395A      6.113789   396A      6.149353  
     397A      6.155732   398A      6.191587   399A      6.203540  
     400A      6.271641   401A      6.316290   402A      6.367338  
     403A      6.393459   404A      6.458952   405A      6.529020  
     406A      6.567921   407A      6.587165   408A      6.681853  
     409A      6.697363   410A      6.793454   411A      6.892673  
     412A      6.907051   413A      6.940357   414A      6.997827  
     415A      7.043876   416A      7.079739   417A      7.167398  
     418A      7.193344   419A      7.328607   420A      7.364612  
     421A      7.394844   422A      7.451929   423A      7.548119  
     424A      7.622324   425A      7.631244   426A      7.663223  
     427A      7.717314   428A      7.819401   429A      7.932769  
     430A      7.990360   431A      8.076360   432A     15.722923  
     433A     17.199404   434A     17.294745   435A     17.586251  
     436A     18.661268   437A     18.965271  

    Final Occupation by Irrep:
              A 
    DOCC [    24 ]

  @DF-RHF Final Energy:  -318.16451143970568

   => Energetics <=

    Nuclear Repulsion Energy =            222.8830294311171087
    One-Electron Energy =                -875.6459718365704248
    Two-Electron Energy =                 334.5984309657475819
    Total Energy =                       -318.1645114397056773

Computation Completed


Properties will be evaluated at   0.000000,   0.000000,   0.000000 [a0]

Properties computed using the SCF density matrix

  Nuclear Dipole Moment: [e a0]
     X:     1.9484      Y:    -1.9828      Z:    -0.0000

  Electronic Dipole Moment: [e a0]
     X:    -1.5914      Y:     1.3240      Z:     0.0000

  Dipole Moment: [e a0]
     X:     0.3571      Y:    -0.6588      Z:    -0.0000     Total:     0.7494

  Dipole Moment: [D]
     X:     0.9076      Y:    -1.6746      Z:    -0.0000     Total:     1.9047


*** tstop() called on node54.bme.utexas.edu at Mon Sep  9 17:28:59 2019
Module time:
	user time   =      73.01 seconds =       1.22 minutes
	system time =       1.38 seconds =       0.02 minutes
	total time  =         20 seconds =       0.33 minutes
Total time:
	user time   =      73.01 seconds =       1.22 minutes
	system time =       1.38 seconds =       0.02 minutes
	total time  =         20 seconds =       0.33 minutes

  //>>>>>>>>>>>>>>>>>>>>>>>>>>>>>>>>>>>//
  //            Monomer A HF           //
  //<<<<<<<<<<<<<<<<<<<<<<<<<<<<<<<<<<<//


*** tstart() called on node54.bme.utexas.edu
*** at Mon Sep  9 17:28:59 2019

   => Loading Basis Set <=

    Name: AUG-CC-PVTZ
    Role: ORBITAL
    Keyword: BASIS
    atoms 1, 7                 entry C          line   235 file /home/xy3866/psi4conda/share/psi4/basis/aug-cc-pvtz.gbs 
    atoms 2, 5-6, 8, 10, 12-13 entry H          line    36 file /home/xy3866/psi4conda/share/psi4/basis/aug-cc-pvtz.gbs 
    atoms 3                    entry O          line   327 file /home/xy3866/psi4conda/share/psi4/basis/aug-cc-pvtz.gbs 
    atoms 4, 9, 11             entry N          line   281 file /home/xy3866/psi4conda/share/psi4/basis/aug-cc-pvtz.gbs 


         ---------------------------------------------------------
                                   SCF
               by Justin Turney, Rob Parrish, Andy Simmonett
                          and Daniel G. A. Smith
                              RHF Reference
                        4 Threads,  30517 MiB Core
         ---------------------------------------------------------

  ==> Geometry <==

    Molecular point group: c1
    Full point group: C1

    Geometry (in Angstrom), charge = 0, multiplicity = 1:

       Center              X                  Y                   Z               Mass       
    ------------   -----------------  -----------------  -----------------  -----------------
         C           -2.174384141487     0.291386622123     0.000010243986    12.000000000000
         H           -3.271898141487     0.357614622123    -0.000010756014     1.007825032230
         O           -1.477406141487     1.301873622123    -0.000003756014    15.994914619570
         N           -1.718430141487    -0.969761377877     0.000001243986    14.003074004430
         H           -0.709868141487    -1.166763377877     0.000000243986     1.007825032230
         H           -2.379014141487    -1.723694377877    -0.000009756014     1.007825032230
      Gh(C)           2.227179958513    -0.279064877877     0.000001143986    12.000000000000
      Gh(H)           3.317091958513    -0.305332877877    -0.000002856014     1.007825032230
      Gh(N)           1.495273958513    -1.340723877877    -0.000000856014    14.003074004430
      Gh(H)           2.095038958513    -2.157042877877    -0.000006856014     1.007825032230
      Gh(N)           1.715004958513     0.965877122123    -0.000002856014    14.003074004430
      Gh(H)           0.708364958513     1.115853122123    -0.000003856014     1.007825032230
      Gh(H)           2.330891958513     1.753430122123    -0.000007856014     1.007825032230

  Running in c1 symmetry.

  Rotational constants: A =      0.18458  B =      0.05504  C =      0.04240 [cm^-1]
  Rotational constants: A =   5533.56712  B =   1650.04542  C =   1271.03697 [MHz]
  Nuclear repulsion =   71.120500652173732

  Charge       = 0
  Multiplicity = 1
  Electrons    = 24
  Nalpha       = 12
  Nbeta        = 12

  ==> Algorithm <==

  SCF Algorithm Type is DF.
  DIIS enabled.
  MOM disabled.
  Fractional occupation disabled.
  Guess Type is SAD.
  Energy threshold   = 1.00e-08
  Density threshold  = 1.00e-08
  Integral threshold = 0.00e+00

  ==> Primary Basis <==

  Basis Set: AUG-CC-PVTZ
    Blend: AUG-CC-PVTZ
    Number of shells: 147
    Number of basis function: 437
    Number of Cartesian functions: 505
    Spherical Harmonics?: true
    Max angular momentum: 3

   => Loading Basis Set <=

    Name: (AUG-CC-PVTZ AUX)
    Role: JKFIT
    Keyword: DF_BASIS_SCF
    atoms 1, 7                 entry C          line   162 file /home/xy3866/psi4conda/share/psi4/basis/aug-cc-pvtz-jkfit.gbs 
    atoms 2, 5-6, 8, 10, 12-13 entry H          line    70 file /home/xy3866/psi4conda/share/psi4/basis/aug-cc-pvtz-jkfit.gbs 
    atoms 3                    entry O          line   286 file /home/xy3866/psi4conda/share/psi4/basis/aug-cc-pvtz-jkfit.gbs 
    atoms 4, 9, 11             entry N          line   224 file /home/xy3866/psi4conda/share/psi4/basis/aug-cc-pvtz-jkfit.gbs 

  ==> Pre-Iterations <==

   -------------------------------------------------------
    Irrep   Nso     Nmo     Nalpha   Nbeta   Ndocc  Nsocc
   -------------------------------------------------------
     A        437     437       0       0       0       0
   -------------------------------------------------------
    Total     437     437      12      12      12       0
   -------------------------------------------------------

  ==> Integral Setup <==

  ==> DiskDFJK: Density-Fitted J/K Matrices <==

    J tasked:                  Yes
    K tasked:                  Yes
    wK tasked:                  No
    OpenMP threads:              4
    Integrals threads:           4
    Memory [MiB]:            22888
    Algorithm:                Core
    Integral Cache:           LOAD
    Schwarz Cutoff:          1E-12
    Fitting Condition:       1E-10

   => Auxiliary Basis Set <=

  Basis Set: (AUG-CC-PVTZ AUX)
    Blend: AUG-CC-PVTZ-JKFIT
    Number of shells: 278
    Number of basis function: 946
    Number of Cartesian functions: 1171
    Spherical Harmonics?: true
    Max angular momentum: 4

  Minimum eigenvalue in the overlap matrix is 2.7625650370E-05.
  Using Symmetric Orthogonalization.

  SCF Guess: Superposition of Atomic Densities via on-the-fly atomic UHF.

  ==> Iterations <==

                           Total Energy        Delta E     RMS |[F,P]|

   @DF-RHF iter SAD:  -168.19954649774175   -1.68200e+02   0.00000e+00 
   @DF-RHF iter   1:  -168.87896932371135   -6.79423e-01   1.22473e-03 DIIS
   @DF-RHF iter   2:  -168.95709225192277   -7.81229e-02   8.37976e-04 DIIS
   @DF-RHF iter   3:  -169.00095450161612   -4.38622e-02   1.20122e-04 DIIS
   @DF-RHF iter   4:  -169.00239970330841   -1.44520e-03   5.20235e-05 DIIS
   @DF-RHF iter   5:  -169.00270521266256   -3.05509e-04   1.04680e-05 DIIS
   @DF-RHF iter   6:  -169.00273569806453   -3.04854e-05   4.99497e-06 DIIS
   @DF-RHF iter   7:  -169.00274210770863   -6.40964e-06   2.01033e-06 DIIS
   @DF-RHF iter   8:  -169.00274322918705   -1.12148e-06   6.08327e-07 DIIS
   @DF-RHF iter   9:  -169.00274333463125   -1.05444e-07   1.67881e-07 DIIS
   @DF-RHF iter  10:  -169.00274334293425   -8.30300e-09   4.14308e-08 DIIS
   @DF-RHF iter  11:  -169.00274334334733   -4.13081e-10   7.42875e-09 DIIS
  Energy and wave function converged.


  ==> Post-Iterations <==

    Orbital Energies [Eh]
    ---------------------

    Doubly Occupied:                                                      

       1A    -20.526744     2A    -15.602881     3A    -11.356512  
       4A     -1.376579     5A     -1.226909     6A     -0.853757  
       7A     -0.755418     8A     -0.676736     9A     -0.602591  
      10A     -0.571868    11A     -0.434965    12A     -0.422025  

    Virtual:                                                              

      13A      0.017308    14A      0.028462    15A      0.037996  
      16A      0.049727    17A      0.054723    18A      0.070612  
      19A      0.072282    20A      0.086119    21A      0.086432  
      22A      0.087485    23A      0.106632    24A      0.113664  
      25A      0.120738    26A      0.127769    27A      0.131715  
      28A      0.137769    29A      0.143513    30A      0.148221  
      31A      0.158141    32A      0.166846    33A      0.166853  
      34A      0.183928    35A      0.188304    36A      0.196374  
      37A      0.207710    38A      0.217028    39A      0.242114  
      40A      0.246770    41A      0.253069    42A      0.255410  
      43A      0.263380    44A      0.274418    45A      0.289464  
      46A      0.289526    47A      0.290512    48A      0.302645  
      49A      0.306756    50A      0.316528    51A      0.323660  
      52A      0.336698    53A      0.344310    54A      0.347388  
      55A      0.355768    56A      0.358295    57A      0.361185  
      58A      0.370828    59A      0.372539    60A      0.381734  
      61A      0.383049    62A      0.389605    63A      0.401651  
      64A      0.413689    65A      0.421528    66A      0.422463  
      67A      0.424538    68A      0.431233    69A      0.440793  
      70A      0.446434    71A      0.466037    72A      0.469427  
      73A      0.482603    74A      0.498661    75A      0.506891  
      76A      0.520033    77A      0.525678    78A      0.546886  
      79A      0.558830    80A      0.559696    81A      0.574611  
      82A      0.585693    83A      0.593383    84A      0.609251  
      85A      0.619110    86A      0.624262    87A      0.627134  
      88A      0.628736    89A      0.641124    90A      0.656862  
      91A      0.683126    92A      0.692841    93A      0.702904  
      94A      0.737016    95A      0.739458    96A      0.755025  
      97A      0.765085    98A      0.774597    99A      0.776333  
     100A      0.781329   101A      0.793895   102A      0.794455  
     103A      0.796444   104A      0.810240   105A      0.818755  
     106A      0.826874   107A      0.840740   108A      0.856987  
     109A      0.870951   110A      0.880367   111A      0.882824  
     112A      0.884007   113A      0.891902   114A      0.901085  
     115A      0.908543   116A      0.912259   117A      0.925626  
     118A      0.929549   119A      0.945661   120A      0.946069  
     121A      0.959930   122A      0.977964   123A      0.991469  
     124A      0.993707   125A      0.997388   126A      1.023228  
     127A      1.024807   128A      1.035014   129A      1.046704  
     130A      1.050228   131A      1.063508   132A      1.073271  
     133A      1.074992   134A      1.084088   135A      1.089714  
     136A      1.101732   137A      1.103708   138A      1.114649  
     139A      1.125265   140A      1.133589   141A      1.139931  
     142A      1.162006   143A      1.168989   144A      1.180911  
     145A      1.190980   146A      1.212416   147A      1.219742  
     148A      1.240865   149A      1.247156   150A      1.249993  
     151A      1.270470   152A      1.288139   153A      1.299345  
     154A      1.303409   155A      1.303929   156A      1.308856  
     157A      1.319665   158A      1.350402   159A      1.362505  
     160A      1.383749   161A      1.388680   162A      1.399948  
     163A      1.401475   164A      1.429942   165A      1.445576  
     166A      1.453823   167A      1.455836   168A      1.483710  
     169A      1.485933   170A      1.500350   171A      1.516086  
     172A      1.524521   173A      1.529030   174A      1.562464  
     175A      1.563693   176A      1.570708   177A      1.600095  
     178A      1.605234   179A      1.616932   180A      1.634932  
     181A      1.640139   182A      1.646816   183A      1.648614  
     184A      1.665555   185A      1.676854   186A      1.698417  
     187A      1.707558   188A      1.724417   189A      1.727410  
     190A      1.732873   191A      1.752056   192A      1.767071  
     193A      1.767161   194A      1.784929   195A      1.786397  
     196A      1.800244   197A      1.814978   198A      1.830377  
     199A      1.880280   200A      1.901341   201A      1.917658  
     202A      1.918641   203A      1.940732   204A      1.952057  
     205A      1.958379   206A      2.002582   207A      2.024074  
     208A      2.041892   209A      2.069310   210A      2.083014  
     211A      2.090388   212A      2.096274   213A      2.120179  
     214A      2.164356   215A      2.178576   216A      2.195556  
     217A      2.221367   218A      2.238038   219A      2.240801  
     220A      2.270835   221A      2.291740   222A      2.302924  
     223A      2.323418   224A      2.346439   225A      2.358868  
     226A      2.370776   227A      2.382865   228A      2.419693  
     229A      2.428182   230A      2.443983   231A      2.453133  
     232A      2.470136   233A      2.512519   234A      2.529576  
     235A      2.537171   236A      2.544441   237A      2.561436  
     238A      2.600735   239A      2.623804   240A      2.623835  
     241A      2.640243   242A      2.654509   243A      2.678165  
     244A      2.691157   245A      2.718467   246A      2.722876  
     247A      2.738982   248A      2.762627   249A      2.793707  
     250A      2.829182   251A      2.834964   252A      2.838602  
     253A      2.898887   254A      2.903713   255A      2.907763  
     256A      2.963404   257A      2.972698   258A      2.975265  
     259A      3.014551   260A      3.052590   261A      3.056555  
     262A      3.119961   263A      3.150677   264A      3.157476  
     265A      3.174651   266A      3.188243   267A      3.206284  
     268A      3.252290   269A      3.279348   270A      3.330066  
     271A      3.397072   272A      3.409473   273A      3.431355  
     274A      3.478429   275A      3.524067   276A      3.563165  
     277A      3.596063   278A      3.623269   279A      3.701640  
     280A      3.703056   281A      3.767267   282A      3.815412  
     283A      3.836192   284A      3.851334   285A      3.882930  
     286A      4.042575   287A      4.058341   288A      4.066659  
     289A      4.074072   290A      4.078402   291A      4.110221  
     292A      4.161471   293A      4.171495   294A      4.186266  
     295A      4.207017   296A      4.220410   297A      4.292366  
     298A      4.330617   299A      4.368706   300A      4.402182  
     301A      4.406188   302A      4.419204   303A      4.428869  
     304A      4.434544   305A      4.457993   306A      4.486007  
     307A      4.505635   308A      4.521891   309A      4.569704  
     310A      4.599422   311A      4.640311   312A      4.643618  
     313A      4.670929   314A      4.673431   315A      4.715542  
     316A      4.731652   317A      4.755690   318A      4.771503  
     319A      4.800985   320A      4.844159   321A      4.849047  
     322A      4.853228   323A      4.857418   324A      4.878907  
     325A      4.898437   326A      4.918722   327A      4.932597  
     328A      4.968978   329A      4.974732   330A      5.003580  
     331A      5.009377   332A      5.025220   333A      5.039435  
     334A      5.058819   335A      5.080490   336A      5.149436  
     337A      5.191082   338A      5.195604   339A      5.196380  
     340A      5.218020   341A      5.255055   342A      5.273647  
     343A      5.292013   344A      5.317602   345A      5.328742  
     346A      5.344408   347A      5.366747   348A      5.390967  
     349A      5.429114   350A      5.431819   351A      5.462606  
     352A      5.489342   353A      5.550899   354A      5.554827  
     355A      5.622296   356A      5.642092   357A      5.686415  
     358A      5.689855   359A      5.759369   360A      5.802847  
     361A      5.813739   362A      5.855604   363A      5.861940  
     364A      5.969304   365A      6.021666   366A      6.028952  
     367A      6.031370   368A      6.093620   369A      6.101406  
     370A      6.149935   371A      6.182809   372A      6.193728  
     373A      6.249823   374A      6.315058   375A      6.341888  
     376A      6.380914   377A      6.398147   378A      6.440426  
     379A      6.457971   380A      6.526421   381A      6.559968  
     382A      6.587617   383A      6.595820   384A      6.645058  
     385A      6.710057   386A      6.765590   387A      6.804655  
     388A      6.861691   389A      6.889221   390A      6.889658  
     391A      6.932345   392A      7.002793   393A      7.031311  
     394A      7.057954   395A      7.166139   396A      7.178762  
     397A      7.253910   398A      7.321665   399A      7.326264  
     400A      7.364907   401A      7.400599   402A      7.405411  
     403A      7.584599   404A      7.591243   405A      7.627635  
     406A      7.634069   407A      7.653475   408A      7.660623  
     409A      7.704919   410A      7.724938   411A      7.752800  
     412A      7.909474   413A      7.942376   414A      7.976368  
     415A      8.074039   416A      8.164599   417A      8.291579  
     418A      8.448538   419A      8.569008   420A      8.979669  
     421A      9.300535   422A      9.367441   423A      9.463162  
     424A      9.475557   425A     10.156857   426A     10.718082  
     427A     11.205319   428A     11.604775   429A     11.715800  
     430A     12.067801   431A     12.878568   432A     15.753890  
     433A     17.501975   434A     18.656216   435A     51.325236  
     436A     59.313342   437A     62.526378  

    Final Occupation by Irrep:
              A 
    DOCC [    12 ]

  @DF-RHF Final Energy:  -169.00274334334733

   => Energetics <=

    Nuclear Repulsion Energy =             71.1205006521737317
    One-Electron Energy =                -371.4325151413474373
    Two-Electron Energy =                 131.3092711458263580
    Total Energy =                       -169.0027433433473334

Computation Completed


Properties will be evaluated at   0.000000,   0.000000,   0.000000 [a0]

Properties computed using the SCF density matrix

  Nuclear Dipole Moment: [e a0]
     X:   -81.7408      Y:     5.3709      Z:     0.0000

  Electronic Dipole Moment: [e a0]
     X:    81.1603      Y:    -7.0309      Z:    -0.0000

  Dipole Moment: [e a0]
     X:    -0.5804      Y:    -1.6600      Z:     0.0000     Total:     1.7586

  Dipole Moment: [D]
     X:    -1.4753      Y:    -4.2194      Z:     0.0000     Total:     4.4699


*** tstop() called on node54.bme.utexas.edu at Mon Sep  9 17:29:11 2019
Module time:
	user time   =      42.23 seconds =       0.70 minutes
	system time =       0.80 seconds =       0.01 minutes
	total time  =         12 seconds =       0.20 minutes
Total time:
	user time   =     115.26 seconds =       1.92 minutes
	system time =       2.18 seconds =       0.04 minutes
	total time  =         32 seconds =       0.53 minutes

  //>>>>>>>>>>>>>>>>>>>>>>>>>>>>>>>>>>>//
  //            Monomer B HF           //
  //<<<<<<<<<<<<<<<<<<<<<<<<<<<<<<<<<<<//


*** tstart() called on node54.bme.utexas.edu
*** at Mon Sep  9 17:29:11 2019

   => Loading Basis Set <=

    Name: AUG-CC-PVTZ
    Role: ORBITAL
    Keyword: BASIS
    atoms 1, 7                 entry C          line   235 file /home/xy3866/psi4conda/share/psi4/basis/aug-cc-pvtz.gbs 
    atoms 2, 5-6, 8, 10, 12-13 entry H          line    36 file /home/xy3866/psi4conda/share/psi4/basis/aug-cc-pvtz.gbs 
    atoms 3                    entry O          line   327 file /home/xy3866/psi4conda/share/psi4/basis/aug-cc-pvtz.gbs 
    atoms 4, 9, 11             entry N          line   281 file /home/xy3866/psi4conda/share/psi4/basis/aug-cc-pvtz.gbs 


         ---------------------------------------------------------
                                   SCF
               by Justin Turney, Rob Parrish, Andy Simmonett
                          and Daniel G. A. Smith
                              RHF Reference
                        4 Threads,  30517 MiB Core
         ---------------------------------------------------------

  ==> Geometry <==

    Molecular point group: c1
    Full point group: C1

    Geometry (in Angstrom), charge = 0, multiplicity = 1:

       Center              X                  Y                   Z               Mass       
    ------------   -----------------  -----------------  -----------------  -----------------
      Gh(C)          -2.174384141487     0.291386622123     0.000010243986    12.000000000000
      Gh(H)          -3.271898141487     0.357614622123    -0.000010756014     1.007825032230
      Gh(O)          -1.477406141487     1.301873622123    -0.000003756014    15.994914619570
      Gh(N)          -1.718430141487    -0.969761377877     0.000001243986    14.003074004430
      Gh(H)          -0.709868141487    -1.166763377877     0.000000243986     1.007825032230
      Gh(H)          -2.379014141487    -1.723694377877    -0.000009756014     1.007825032230
         C            2.227179958513    -0.279064877877     0.000001143986    12.000000000000
         H            3.317091958513    -0.305332877877    -0.000002856014     1.007825032230
         N            1.495273958513    -1.340723877877    -0.000000856014    14.003074004430
         H            2.095038958513    -2.157042877877    -0.000006856014     1.007825032230
         N            1.715004958513     0.965877122123    -0.000002856014    14.003074004430
         H            0.708364958513     1.115853122123    -0.000003856014     1.007825032230
         H            2.330891958513     1.753430122123    -0.000007856014     1.007825032230

  Running in c1 symmetry.

  Rotational constants: A =      0.18458  B =      0.05504  C =      0.04240 [cm^-1]
  Rotational constants: A =   5533.56712  B =   1650.04542  C =   1271.03697 [MHz]
  Nuclear repulsion =   72.220840074253033

  Charge       = 0
  Multiplicity = 1
  Electrons    = 24
  Nalpha       = 12
  Nbeta        = 12

  ==> Algorithm <==

  SCF Algorithm Type is DF.
  DIIS enabled.
  MOM disabled.
  Fractional occupation disabled.
  Guess Type is SAD.
  Energy threshold   = 1.00e-08
  Density threshold  = 1.00e-08
  Integral threshold = 0.00e+00

  ==> Primary Basis <==

  Basis Set: AUG-CC-PVTZ
    Blend: AUG-CC-PVTZ
    Number of shells: 147
    Number of basis function: 437
    Number of Cartesian functions: 505
    Spherical Harmonics?: true
    Max angular momentum: 3

   => Loading Basis Set <=

    Name: (AUG-CC-PVTZ AUX)
    Role: JKFIT
    Keyword: DF_BASIS_SCF
    atoms 1, 7                 entry C          line   162 file /home/xy3866/psi4conda/share/psi4/basis/aug-cc-pvtz-jkfit.gbs 
    atoms 2, 5-6, 8, 10, 12-13 entry H          line    70 file /home/xy3866/psi4conda/share/psi4/basis/aug-cc-pvtz-jkfit.gbs 
    atoms 3                    entry O          line   286 file /home/xy3866/psi4conda/share/psi4/basis/aug-cc-pvtz-jkfit.gbs 
    atoms 4, 9, 11             entry N          line   224 file /home/xy3866/psi4conda/share/psi4/basis/aug-cc-pvtz-jkfit.gbs 

  ==> Pre-Iterations <==

   -------------------------------------------------------
    Irrep   Nso     Nmo     Nalpha   Nbeta   Ndocc  Nsocc
   -------------------------------------------------------
     A        437     437       0       0       0       0
   -------------------------------------------------------
    Total     437     437      12      12      12       0
   -------------------------------------------------------

  ==> Integral Setup <==

  ==> DiskDFJK: Density-Fitted J/K Matrices <==

    J tasked:                  Yes
    K tasked:                  Yes
    wK tasked:                  No
    OpenMP threads:              4
    Integrals threads:           4
    Memory [MiB]:            22888
    Algorithm:                Core
    Integral Cache:           LOAD
    Schwarz Cutoff:          1E-12
    Fitting Condition:       1E-10

   => Auxiliary Basis Set <=

  Basis Set: (AUG-CC-PVTZ AUX)
    Blend: AUG-CC-PVTZ-JKFIT
    Number of shells: 278
    Number of basis function: 946
    Number of Cartesian functions: 1171
    Spherical Harmonics?: true
    Max angular momentum: 4

  Minimum eigenvalue in the overlap matrix is 2.7625650370E-05.
  Using Symmetric Orthogonalization.

  SCF Guess: Superposition of Atomic Densities via on-the-fly atomic UHF.

  ==> Iterations <==

                           Total Energy        Delta E     RMS |[F,P]|

   @DF-RHF iter SAD:  -148.39145739152011   -1.48391e+02   0.00000e+00 
   @DF-RHF iter   1:  -148.99803796903723   -6.06581e-01   1.25638e-03 DIIS
   @DF-RHF iter   2:  -149.10002099478055   -1.01983e-01   7.40057e-04 DIIS
   @DF-RHF iter   3:  -149.14179240207403   -4.17714e-02   1.03369e-04 DIIS
   @DF-RHF iter   4:  -149.14320146662095   -1.40906e-03   5.11127e-05 DIIS
   @DF-RHF iter   5:  -149.14347738502747   -2.75918e-04   9.28703e-06 DIIS
   @DF-RHF iter   6:  -149.14350563814207   -2.82531e-05   4.37889e-06 DIIS
   @DF-RHF iter   7:  -149.14351026848954   -4.63035e-06   1.76425e-06 DIIS
   @DF-RHF iter   8:  -149.14351119685125   -9.28362e-07   5.20225e-07 DIIS
   @DF-RHF iter   9:  -149.14351128121069   -8.43594e-08   1.58794e-07 DIIS
   @DF-RHF iter  10:  -149.14351128863498   -7.42429e-09   3.95198e-08 DIIS
   @DF-RHF iter  11:  -149.14351128910056   -4.65576e-10   7.55436e-09 DIIS
  Energy and wave function converged.


  ==> Post-Iterations <==

    Orbital Energies [Eh]
    ---------------------

    Doubly Occupied:                                                      

       1A    -15.580946     2A    -15.519592     3A    -11.314718  
       4A     -1.259453     5A     -1.137361     6A     -0.830842  
       7A     -0.746509     8A     -0.640070     9A     -0.616580  
      10A     -0.530116    11A     -0.419649    12A     -0.359602  

    Virtual:                                                              

      13A      0.022253    14A      0.030772    15A      0.037398  
      16A      0.051165    17A      0.055858    18A      0.069849  
      19A      0.073996    20A      0.085977    21A      0.086906  
      22A      0.098073    23A      0.100179    24A      0.115393  
      25A      0.128516    26A      0.133103    27A      0.137425  
      28A      0.138041    29A      0.143305    30A      0.152624  
      31A      0.156504    32A      0.172455    33A      0.173060  
      34A      0.187544    35A      0.200370    36A      0.201238  
      37A      0.212909    38A      0.220580    39A      0.228892  
      40A      0.237815    41A      0.239818    42A      0.253618  
      43A      0.256627    44A      0.275671    45A      0.281431  
      46A      0.301641    47A      0.303327    48A      0.305868  
      49A      0.312367    50A      0.314326    51A      0.319293  
      52A      0.333571    53A      0.346250    54A      0.355314  
      55A      0.355407    56A      0.366718    57A      0.371783  
      58A      0.375336    59A      0.382740    60A      0.385460  
      61A      0.391126    62A      0.392234    63A      0.404069  
      64A      0.411505    65A      0.421902    66A      0.425710  
      67A      0.442240    68A      0.444362    69A      0.450143  
      70A      0.461585    71A      0.466200    72A      0.484494  
      73A      0.494449    74A      0.503848    75A      0.505580  
      76A      0.517748    77A      0.528722    78A      0.536444  
      79A      0.548924    80A      0.554330    81A      0.559237  
      82A      0.580793    83A      0.591694    84A      0.620034  
      85A      0.631793    86A      0.635232    87A      0.646707  
      88A      0.654341    89A      0.656215    90A      0.660301  
      91A      0.674597    92A      0.686914    93A      0.692834  
      94A      0.705694    95A      0.726538    96A      0.736501  
      97A      0.746261    98A      0.762146    99A      0.763423  
     100A      0.763717   101A      0.769876   102A      0.794650  
     103A      0.812483   104A      0.820223   105A      0.828082  
     106A      0.839061   107A      0.840581   108A      0.871651  
     109A      0.886313   110A      0.886334   111A      0.894160  
     112A      0.900440   113A      0.908837   114A      0.915591  
     115A      0.920841   116A      0.929100   117A      0.936090  
     118A      0.942221   119A      0.947747   120A      0.968491  
     121A      0.971993   122A      0.987190   123A      0.989783  
     124A      1.002456   125A      1.009007   126A      1.017277  
     127A      1.020052   128A      1.022693   129A      1.036279  
     130A      1.050636   131A      1.055654   132A      1.062087  
     133A      1.067736   134A      1.071404   135A      1.086954  
     136A      1.093639   137A      1.104330   138A      1.114305  
     139A      1.129822   140A      1.138515   141A      1.139853  
     142A      1.162706   143A      1.163879   144A      1.189706  
     145A      1.207059   146A      1.211367   147A      1.216393  
     148A      1.223145   149A      1.242304   150A      1.244176  
     151A      1.249889   152A      1.264000   153A      1.294673  
     154A      1.297643   155A      1.309779   156A      1.318455  
     157A      1.337892   158A      1.351801   159A      1.365619  
     160A      1.369832   161A      1.378367   162A      1.379225  
     163A      1.388703   164A      1.401592   165A      1.427118  
     166A      1.455317   167A      1.457862   168A      1.464532  
     169A      1.475590   170A      1.477613   171A      1.486228  
     172A      1.500364   173A      1.508514   174A      1.546709  
     175A      1.554756   176A      1.569744   177A      1.573124  
     178A      1.584691   179A      1.591990   180A      1.613303  
     181A      1.630347   182A      1.650426   183A      1.660861  
     184A      1.674043   185A      1.698305   186A      1.704648  
     187A      1.705423   188A      1.714580   189A      1.729378  
     190A      1.759529   191A      1.768132   192A      1.771747  
     193A      1.776952   194A      1.796791   195A      1.810183  
     196A      1.839671   197A      1.865292   198A      1.874032  
     199A      1.890123   200A      1.898424   201A      1.914651  
     202A      1.938055   203A      1.960401   204A      1.972454  
     205A      1.997768   206A      2.007604   207A      2.010951  
     208A      2.037563   209A      2.069374   210A      2.084705  
     211A      2.107708   212A      2.117867   213A      2.126592  
     214A      2.145497   215A      2.161587   216A      2.192544  
     217A      2.202842   218A      2.236998   219A      2.241460  
     220A      2.285776   221A      2.294216   222A      2.316760  
     223A      2.318467   224A      2.345926   225A      2.361750  
     226A      2.389129   227A      2.400842   228A      2.431980  
     229A      2.434853   230A      2.442592   231A      2.471264  
     232A      2.491505   233A      2.503363   234A      2.514386  
     235A      2.533617   236A      2.547622   237A      2.589958  
     238A      2.590764   239A      2.612821   240A      2.642353  
     241A      2.655073   242A      2.670605   243A      2.689818  
     244A      2.691019   245A      2.724771   246A      2.731771  
     247A      2.762007   248A      2.770599   249A      2.799469  
     250A      2.830313   251A      2.848978   252A      2.856213  
     253A      2.861115   254A      2.941286   255A      2.962714  
     256A      2.977531   257A      2.980316   258A      2.996746  
     259A      3.007230   260A      3.055978   261A      3.102609  
     262A      3.132128   263A      3.185238   264A      3.205469  
     265A      3.207188   266A      3.233080   267A      3.301965  
     268A      3.342024   269A      3.402344   270A      3.404975  
     271A      3.450303   272A      3.472528   273A      3.483804  
     274A      3.538827   275A      3.572307   276A      3.597255  
     277A      3.661067   278A      3.689383   279A      3.712053  
     280A      3.767109   281A      3.801938   282A      3.816059  
     283A      3.851275   284A      3.856147   285A      3.923086  
     286A      3.951134   287A      3.985160   288A      4.022048  
     289A      4.067209   290A      4.071168   291A      4.078195  
     292A      4.084132   293A      4.106909   294A      4.119463  
     295A      4.131486   296A      4.153319   297A      4.184798  
     298A      4.207201   299A      4.219975   300A      4.254161  
     301A      4.302555   302A      4.320499   303A      4.363532  
     304A      4.373313   305A      4.417755   306A      4.444854  
     307A      4.450987   308A      4.488697   309A      4.528786  
     310A      4.536998   311A      4.548065   312A      4.572276  
     313A      4.623531   314A      4.625672   315A      4.646303  
     316A      4.672234   317A      4.694770   318A      4.721148  
     319A      4.745367   320A      4.746770   321A      4.785156  
     322A      4.787030   323A      4.848385   324A      4.854258  
     325A      4.871043   326A      4.887975   327A      4.901279  
     328A      4.913018   329A      4.927416   330A      4.959017  
     331A      4.974027   332A      4.988967   333A      4.993445  
     334A      5.008467   335A      5.045162   336A      5.050373  
     337A      5.088816   338A      5.123715   339A      5.147942  
     340A      5.178251   341A      5.205596   342A      5.209068  
     343A      5.242702   344A      5.275067   345A      5.279481  
     346A      5.309363   347A      5.327918   348A      5.349096  
     349A      5.383429   350A      5.387382   351A      5.402466  
     352A      5.435703   353A      5.465842   354A      5.477633  
     355A      5.485294   356A      5.520547   357A      5.539268  
     358A      5.581235   359A      5.614580   360A      5.638381  
     361A      5.667124   362A      5.701256   363A      5.728103  
     364A      5.743261   365A      5.769036   366A      5.812400  
     367A      5.822273   368A      5.876482   369A      5.902825  
     370A      5.910564   371A      5.953698   372A      5.955403  
     373A      6.024395   374A      6.109999   375A      6.129607  
     376A      6.141718   377A      6.163635   378A      6.205428  
     379A      6.210682   380A      6.264709   381A      6.347333  
     382A      6.364544   383A      6.520316   384A      6.558675  
     385A      6.596343   386A      6.598754   387A      6.649774  
     388A      6.685073   389A      6.704877   390A      6.709981  
     391A      6.762039   392A      6.809464   393A      6.832123  
     394A      6.905791   395A      7.052490   396A      7.066606  
     397A      7.338447   398A      7.417004   399A      7.476042  
     400A      7.540066   401A      7.624806   402A      7.664976  
     403A      7.668665   404A      7.700080   405A      7.729386  
     406A      7.739761   407A      7.820029   408A      7.919122  
     409A      7.925246   410A      8.014190   411A      8.133494  
     412A      8.158094   413A      8.402725   414A      8.649660  
     415A      8.726424   416A      9.134032   417A      9.301783  
     418A      9.476547   419A      9.787902   420A      9.875073  
     421A     10.064852   422A     10.081028   423A     10.441693  
     424A     10.623971   425A     11.191864   426A     11.712652  
     427A     11.871978   428A     12.397071   429A     12.616608  
     430A     12.878000   431A     13.990911   432A     17.204715  
     433A     17.357489   434A     18.937992   435A     51.204720  
     436A     61.395079   437A     66.528716  

    Final Occupation by Irrep:
              A 
    DOCC [    12 ]

  @DF-RHF Final Energy:  -149.14351128910056

   => Energetics <=

    Nuclear Repulsion Energy =             72.2208400742530330
    One-Electron Energy =                -344.8178261753387801
    Two-Electron Energy =                 123.4534748119851884
    Total Energy =                       -149.1435112891005588

Computation Completed


Properties will be evaluated at   0.000000,   0.000000,   0.000000 [a0]

Properties computed using the SCF density matrix

  Nuclear Dipole Moment: [e a0]
     X:    83.6892      Y:    -7.3537      Z:    -0.0001

  Electronic Dipole Moment: [e a0]
     X:   -82.8459      Y:     8.3242      Z:     0.0001

  Dipole Moment: [e a0]
     X:     0.8433      Y:     0.9705      Z:    -0.0000     Total:     1.2857

  Dipole Moment: [D]
     X:     2.1436      Y:     2.4667      Z:    -0.0000     Total:     3.2680


*** tstop() called on node54.bme.utexas.edu at Mon Sep  9 17:29:23 2019
Module time:
	user time   =      40.99 seconds =       0.68 minutes
	system time =       0.80 seconds =       0.01 minutes
	total time  =         12 seconds =       0.20 minutes
Total time:
	user time   =     156.28 seconds =       2.60 minutes
	system time =       2.98 seconds =       0.05 minutes
	total time  =         44 seconds =       0.73 minutes
  Constructing Basis Sets for SAPT...

   => Loading Basis Set <=

    Name: (AUG-CC-PVTZ AUX)
    Role: RIFIT
    Keyword: DF_BASIS_SAPT
    atoms 1, 7                 entry C          line   148 file /home/xy3866/psi4conda/share/psi4/basis/aug-cc-pvtz-ri.gbs 
    atoms 2, 5-6, 8, 10, 12-13 entry H          line    30 file /home/xy3866/psi4conda/share/psi4/basis/aug-cc-pvtz-ri.gbs 
    atoms 3                    entry O          line   264 file /home/xy3866/psi4conda/share/psi4/basis/aug-cc-pvtz-ri.gbs 
    atoms 4, 9, 11             entry N          line   206 file /home/xy3866/psi4conda/share/psi4/basis/aug-cc-pvtz-ri.gbs 


  //>>>>>>>>>>>>>>>>>>>>>>>>>>>>>>>>>>>//
  //               SAPT2+              //
  //<<<<<<<<<<<<<<<<<<<<<<<<<<<<<<<<<<<//


*** tstart() called on node54.bme.utexas.edu
*** at Mon Sep  9 17:29:23 2019

        SAPT2+  
    Ed Hohenstein
     6 June 2009

      Orbital Information
  --------------------------
    NSO        =       437
    NMO        =       437
    NRI        =       958
    NOCC A     =        12
    NOCC B     =        12
    FOCC A     =         3
    FOCC B     =         3
    NVIR A     =       425
    NVIR B     =       425

    Estimated memory usage: 2008.5 MB

    Natural Orbital Cutoff:   1.000E-06
    Disp(T3) Truncation:            Yes
    CCD (vv|vv) Truncation:         Yes
    MBPT T2 Truncation:             Yes

    Monomer A: 243 virtual orbitals dropped
    Monomer B: 226 virtual orbitals dropped

    Elst10,r            =    -0.025498867879 [Eh]
    Exch10 (S^2)        =     0.014625984819 [Eh]
    Exch10              =     0.014719485983 [Eh]
    Ind20,r (A<-B)      =    -0.003451139816 [Eh]
    Ind20,r (B<-A)      =    -0.005099008225 [Eh]
    Ind20,r             =    -0.008550148041 [Eh]
    Exch-Ind20,r (A<-B) =     0.001258117559 [Eh]
    Exch-Ind20,r (B<-A) =     0.002495183302 [Eh]
    Exch-Ind20,r        =     0.003753300861 [Eh]
    Disp20              =    -0.007873216022 [Eh]
    Disp20 (NO)         =    -0.006901001297 [Eh]
    Exch-Disp20         =     0.001215957402 [Eh]
    Elst12,r            =     0.000850126645 [Eh]
    Exch11              =     0.000087359062 [Eh]
    Exch12              =     0.002350840041 [Eh]
    Ind22               =    -0.000975245139 [Eh]
    Disp21              =     0.000435077573 [Eh]
    Disp22 (SDQ)        =    -0.000000677525 [Eh]

    (i =   1 of   9)         27 seconds
    (i =   2 of   9)         53 seconds
    (i =   3 of   9)         80 seconds
    (i =   4 of   9)        106 seconds
    (i =   5 of   9)        133 seconds
    (i =   6 of   9)        159 seconds
    (i =   7 of   9)        186 seconds
    (i =   8 of   9)        212 seconds
    (i =   9 of   9)        239 seconds

    Disp220 (T)         =    -0.000690245119 [Eh]

    (i =   1 of   9)         29 seconds
    (i =   2 of   9)         59 seconds
    (i =   3 of   9)         88 seconds
    (i =   4 of   9)        117 seconds
    (i =   5 of   9)        147 seconds
    (i =   6 of   9)        176 seconds
    (i =   7 of   9)        205 seconds
    (i =   8 of   9)        234 seconds
    (i =   9 of   9)        264 seconds

    Disp202 (T)         =    -0.000637742443 [Eh]

    Disp22 (T)          =    -0.001327987562 [Eh]

    Est. Disp220 (T)    =    -0.000787487018 [Eh]
    Est. Disp202 (T)    =    -0.000727587752 [Eh]

    Est. Disp22 (T)     =    -0.001515074769 [Eh]

    SAPT Results 
  --------------------------------------------------------------------------------------------------------
    Electrostatics                -24.64874123 [mEh]     -15.46731864 [kcal/mol]     -64.71526119 [kJ/mol]
      Elst10,r                    -25.49886788 [mEh]     -16.00078116 [kcal/mol]     -66.94726839 [kJ/mol]
      Elst12,r                      0.85012664 [mEh]       0.53346252 [kcal/mol]       2.23200720 [kJ/mol]

    Exchange                       17.15768509 [mEh]      10.76660994 [kcal/mol]      45.04749599 [kJ/mol]
      Exch10                       14.71948598 [mEh]       9.23661690 [kcal/mol]      38.64600512 [kJ/mol]
      Exch10(S^2)                  14.62598482 [mEh]       9.17794404 [kcal/mol]      38.40051785 [kJ/mol]
      Exch11(S^2)                   0.08735906 [mEh]       0.05481864 [kcal/mol]       0.22936119 [kJ/mol]
      Exch12(S^2)                   2.35084004 [mEh]       1.47517440 [kcal/mol]       6.17212968 [kJ/mol]

    Induction                      -8.02456231 [mEh]      -5.03548887 [kcal/mol]     -21.06848544 [kJ/mol]
      Ind20,r                      -8.55014804 [mEh]      -5.36529890 [kcal/mol]     -22.44841059 [kJ/mol]
      Ind22                        -0.97524514 [mEh]      -0.61197556 [kcal/mol]      -2.56050576 [kJ/mol]
      Exch-Ind20,r                  3.75330086 [mEh]       2.35523185 [kcal/mol]       9.85429005 [kJ/mol]
      Exch-Ind22                    0.42810819 [mEh]       0.26864195 [kcal/mol]       1.12399790 [kJ/mol]
      delta HF,r (2)               -2.68057818 [mEh]      -1.68208820 [kcal/mol]      -7.03785704 [kJ/mol]

    Dispersion                     -7.73793334 [mEh]      -4.85562648 [kcal/mol]     -20.31594119 [kJ/mol]
      Disp20                       -7.87321602 [mEh]      -4.94051764 [kcal/mol]     -20.67112582 [kJ/mol]
      Disp21                        0.43507757 [mEh]       0.27301530 [kcal/mol]       1.14229601 [kJ/mol]
      Disp22 (SDQ)                 -0.00067752 [mEh]      -0.00042515 [kcal/mol]      -0.00177884 [kJ/mol]
      Disp22 (T)                   -1.32798756 [mEh]      -0.83332478 [kcal/mol]      -3.48663086 [kJ/mol]
      Est. Disp22 (T)              -1.51507477 [mEh]      -0.95072377 [kcal/mol]      -3.97782826 [kJ/mol]
      Exch-Disp20                   1.21595740 [mEh]       0.76302479 [kcal/mol]       3.19249572 [kJ/mol]

  Total HF                        -18.25680726 [mEh]     -11.45631952 [kcal/mol]     -47.93324085 [kJ/mol]
  Total SAPT0                     -24.91406588 [mEh]     -15.63381237 [kcal/mol]     -65.41187095 [kJ/mol]
  Total SAPT2                     -22.17287708 [mEh]     -13.91369043 [kcal/mol]     -58.21488074 [kJ/mol]
  Total SAPT2+                    -23.25355180 [mEh]     -14.59182405 [kcal/mol]     -61.05219184 [kJ/mol]

  Special recipe for scaled SAPT0 (see Manual):
    Electrostatics sSAPT0         -25.49886788 [mEh]     -16.00078116 [kcal/mol]     -66.94726839 [kJ/mol]
    Exchange sSAPT0                14.71948598 [mEh]       9.23661690 [kcal/mol]      38.64600512 [kJ/mol]
    Induction sSAPT0               -7.40498178 [mEh]      -4.64669622 [kcal/mol]     -19.44177698 [kJ/mol]
    Dispersion sSAPT0              -6.63378906 [mEh]      -4.16276548 [kcal/mol]     -17.41701078 [kJ/mol]
  Total sSAPT0                    -24.81815273 [mEh]     -15.57362596 [kcal/mol]     -65.16005103 [kJ/mol]
  --------------------------------------------------------------------------------------------------------

*** tstop() called on node54.bme.utexas.edu at Mon Sep  9 17:41:38 2019
Module time:
	user time   =    2803.04 seconds =      46.72 minutes
	system time =      49.34 seconds =       0.82 minutes
	total time  =        735 seconds =      12.25 minutes
Total time:
	user time   =    2959.64 seconds =      49.33 minutes
	system time =      52.32 seconds =       0.87 minutes
	total time  =        779 seconds =      12.98 minutes

    Psi4 stopped on: Monday, 09 September 2019 05:41PM
    Psi4 wall time for execution: 0:12:58.22

*** Psi4 exiting successfully. Buy a developer a beer!
