
    -----------------------------------------------------------------------
          Psi4: An Open-Source Ab Initio Electronic Structure Package
                               Psi4 1.3.2 release

                         Git: Rev {HEAD} ecbda83 


    R. M. Parrish, L. A. Burns, D. G. A. Smith, A. C. Simmonett,
    A. E. DePrince III, E. G. Hohenstein, U. Bozkaya, A. Yu. Sokolov,
    R. Di Remigio, R. M. Richard, J. F. Gonthier, A. M. James,
    H. R. McAlexander, A. Kumar, M. Saitow, X. Wang, B. P. Pritchard,
    P. Verma, H. F. Schaefer III, K. Patkowski, R. A. King, E. F. Valeev,
    F. A. Evangelista, J. M. Turney, T. D. Crawford, and C. D. Sherrill,
    J. Chem. Theory Comput. 13(7) pp 3185--3197 (2017).
    (doi: 10.1021/acs.jctc.7b00174)


                         Additional Contributions by
    P. Kraus, H. Kruse, M. H. Lechner, M. C. Schieber, R. A. Shaw,
    A. Alenaizan, R. Galvelis, Z. L. Glick, S. Lehtola, and J. P. Misiewicz

    -----------------------------------------------------------------------


    Psi4 started on: Monday, 09 September 2019 04:32PM

    Process ID: 49238
    Host:       node54.bme.utexas.edu
    PSIDATADIR: /home/xy3866/psi4conda/share/psi4
    Memory:     500.0 MiB
    Threads:    4
    
  ==> Input File <==

--------------------------------------------------------------------------
#psi4
#
memory 32 gb

molecule  {
0 1
  C       -2.0482690     0.2828850     0.0000130
  H       -3.1457830     0.3491130    -0.0000080
  O       -1.3512910     1.2933720    -0.0000010
  N       -1.5923150    -0.9782630     0.0000040
  H       -0.5837530    -1.1752650     0.0000030
  H       -2.2528990    -1.7321960    -0.0000070
--
0 1
  C        1.7709209    -0.2232975     0.0000041
  H        2.8608329    -0.2495655     0.0000000
  N        1.0390150    -1.2849565     0.0000020
  H        1.6387799    -2.1012755    -0.0000039
  N        1.2587460     1.0216445     0.0000000
  H        0.2521060     1.1716205    -0.0000010
  H        1.8746330     1.8091975    -0.0000050
units angstrom
no_reorient  #important for SAPT in psi4, default
symmetry c1  #important for SAPT in psi4, default
}

set {
basis aug-cc-pVTZ
scf_type DF
freeze_core True
}
energy('sapt2+')
--------------------------------------------------------------------------

  Memory set to  29.802 GiB by Python driver.

  //>>>>>>>>>>>>>>>>>>>>>>>>>>>>>>>>>>>//
  //              Dimer HF             //
  //<<<<<<<<<<<<<<<<<<<<<<<<<<<<<<<<<<<//


*** tstart() called on node54.bme.utexas.edu
*** at Mon Sep  9 16:32:42 2019

   => Loading Basis Set <=

    Name: AUG-CC-PVTZ
    Role: ORBITAL
    Keyword: BASIS
    atoms 1, 7                 entry C          line   235 file /home/xy3866/psi4conda/share/psi4/basis/aug-cc-pvtz.gbs 
    atoms 2, 5-6, 8, 10, 12-13 entry H          line    36 file /home/xy3866/psi4conda/share/psi4/basis/aug-cc-pvtz.gbs 
    atoms 3                    entry O          line   327 file /home/xy3866/psi4conda/share/psi4/basis/aug-cc-pvtz.gbs 
    atoms 4, 9, 11             entry N          line   281 file /home/xy3866/psi4conda/share/psi4/basis/aug-cc-pvtz.gbs 


         ---------------------------------------------------------
                                   SCF
               by Justin Turney, Rob Parrish, Andy Simmonett
                          and Daniel G. A. Smith
                              RHF Reference
                        4 Threads,  30517 MiB Core
         ---------------------------------------------------------

  ==> Geometry <==

    Molecular point group: c1
    Full point group: C1

    Geometry (in Angstrom), charge = 0, multiplicity = 1:

       Center              X                  Y                   Z               Mass       
    ------------   -----------------  -----------------  -----------------  -----------------
         C           -1.886414413451     0.259607177536     0.000010179932    12.000000000000
         H           -2.983928413451     0.325835177536    -0.000010820068     1.007825032230
         O           -1.189436413451     1.270094177536    -0.000003820068    15.994914619570
         N           -1.430460413451    -1.001540822464     0.000001179932    14.003074004430
         H           -0.421898413451    -1.198542822464     0.000000179932     1.007825032230
         H           -2.091044413451    -1.755473822464    -0.000009820068     1.007825032230
         C            1.932775486549    -0.246575322464     0.000001279932    12.000000000000
         H            3.022687486549    -0.272843322464    -0.000002820068     1.007825032230
         N            1.200869586549    -1.308234322464    -0.000000820068    14.003074004430
         H            1.800634486549    -2.124553322464    -0.000006720068     1.007825032230
         N            1.420600586549     0.998366677536    -0.000002820068    14.003074004430
         H            0.413960586549     1.148342677536    -0.000003820068     1.007825032230
         H            2.036487586549     1.785919677536    -0.000007820068     1.007825032230

  Running in c1 symmetry.

  Rotational constants: A =      0.18460  B =      0.07681  C =      0.05424 [cm^-1]
  Rotational constants: A =   5534.06712  B =   2302.72289  C =   1626.10240 [MHz]
  Nuclear repulsion =  236.671590437469092

  Charge       = 0
  Multiplicity = 1
  Electrons    = 48
  Nalpha       = 24
  Nbeta        = 24

  ==> Algorithm <==

  SCF Algorithm Type is DF.
  DIIS enabled.
  MOM disabled.
  Fractional occupation disabled.
  Guess Type is SAD.
  Energy threshold   = 1.00e-08
  Density threshold  = 1.00e-08
  Integral threshold = 0.00e+00

  ==> Primary Basis <==

  Basis Set: AUG-CC-PVTZ
    Blend: AUG-CC-PVTZ
    Number of shells: 147
    Number of basis function: 437
    Number of Cartesian functions: 505
    Spherical Harmonics?: true
    Max angular momentum: 3

   => Loading Basis Set <=

    Name: (AUG-CC-PVTZ AUX)
    Role: JKFIT
    Keyword: DF_BASIS_SCF
    atoms 1, 7                 entry C          line   162 file /home/xy3866/psi4conda/share/psi4/basis/aug-cc-pvtz-jkfit.gbs 
    atoms 2, 5-6, 8, 10, 12-13 entry H          line    70 file /home/xy3866/psi4conda/share/psi4/basis/aug-cc-pvtz-jkfit.gbs 
    atoms 3                    entry O          line   286 file /home/xy3866/psi4conda/share/psi4/basis/aug-cc-pvtz-jkfit.gbs 
    atoms 4, 9, 11             entry N          line   224 file /home/xy3866/psi4conda/share/psi4/basis/aug-cc-pvtz-jkfit.gbs 

  ==> Pre-Iterations <==

   -------------------------------------------------------
    Irrep   Nso     Nmo     Nalpha   Nbeta   Ndocc  Nsocc
   -------------------------------------------------------
     A        437     437       0       0       0       0
   -------------------------------------------------------
    Total     437     437      24      24      24       0
   -------------------------------------------------------

  ==> Integral Setup <==

  ==> DiskDFJK: Density-Fitted J/K Matrices <==

    J tasked:                  Yes
    K tasked:                  Yes
    wK tasked:                  No
    OpenMP threads:              4
    Integrals threads:           4
    Memory [MiB]:            22888
    Algorithm:                Core
    Integral Cache:           SAVE
    Schwarz Cutoff:          1E-12
    Fitting Condition:       1E-10

   => Auxiliary Basis Set <=

  Basis Set: (AUG-CC-PVTZ AUX)
    Blend: AUG-CC-PVTZ-JKFIT
    Number of shells: 278
    Number of basis function: 946
    Number of Cartesian functions: 1171
    Spherical Harmonics?: true
    Max angular momentum: 4

  Minimum eigenvalue in the overlap matrix is 2.2132224679E-05.
  Using Symmetric Orthogonalization.

  SCF Guess: Superposition of Atomic Densities via on-the-fly atomic UHF.

  ==> Iterations <==

                           Total Energy        Delta E     RMS |[F,P]|

   @DF-RHF iter SAD:  -317.02108756948161   -3.17021e+02   0.00000e+00 
   @DF-RHF iter   1:  -317.91814990156303   -8.97062e-01   1.67165e-03 DIIS
   @DF-RHF iter   2:  -318.08744841406093   -1.69299e-01   9.62563e-04 DIIS
   @DF-RHF iter   3:  -318.15155553355635   -6.41071e-02   1.42052e-04 DIIS
   @DF-RHF iter   4:  -318.15384239669652   -2.28686e-03   6.42196e-05 DIIS
   @DF-RHF iter   5:  -318.15423963798037   -3.97241e-04   1.33804e-05 DIIS
   @DF-RHF iter   6:  -318.15428048699471   -4.08490e-05   6.20062e-06 DIIS
   @DF-RHF iter   7:  -318.15428919524084   -8.70825e-06   2.42480e-06 DIIS
   @DF-RHF iter   8:  -318.15429106373460   -1.86849e-06   9.40630e-07 DIIS
   @DF-RHF iter   9:  -318.15429131145243   -2.47718e-07   3.91293e-07 DIIS
   @DF-RHF iter  10:  -318.15429134836324   -3.69108e-08   1.28200e-07 DIIS
   @DF-RHF iter  11:  -318.15429135233859   -3.97534e-09   4.13553e-08 DIIS
   @DF-RHF iter  12:  -318.15429135278805   -4.49461e-10   1.00498e-08 DIIS
   @DF-RHF iter  13:  -318.15429135280988   -2.18279e-11   2.71510e-09 DIIS
  Energy and wave function converged.


  ==> Post-Iterations <==

    Orbital Energies [Eh]
    ---------------------

    Doubly Occupied:                                                      

       1A    -20.521013     2A    -15.557272     3A    -15.552031  
       4A    -15.522297     5A    -11.347134     6A    -11.319867  
       7A     -1.379438     8A     -1.253447     9A     -1.200299  
      10A     -1.137882    11A     -0.851812    12A     -0.812273  
      13A     -0.744702    14A     -0.727786    15A     -0.698683  
      16A     -0.623141    17A     -0.607918    18A     -0.594490  
      19A     -0.563125    20A     -0.521494    21A     -0.454006  
      22A     -0.410440    23A     -0.405472    24A     -0.357803  

    Virtual:                                                              

      25A      0.027026    26A      0.032160    27A      0.039293  
      28A      0.050720    29A      0.056003    30A      0.073591  
      31A      0.078677    32A      0.086158    33A      0.090213  
      34A      0.107425    35A      0.122638    36A      0.128002  
      37A      0.134445    38A      0.135306    39A      0.140170  
      40A      0.146625    41A      0.150186    42A      0.156665  
      43A      0.164987    44A      0.173595    45A      0.177431  
      46A      0.194852    47A      0.200769    48A      0.207073  
      49A      0.210113    50A      0.217194    51A      0.250995  
      52A      0.253475    53A      0.256249    54A      0.266924  
      55A      0.276758    56A      0.281858    57A      0.290924  
      58A      0.302867    59A      0.303625    60A      0.314246  
      61A      0.323921    62A      0.327147    63A      0.331479  
      64A      0.333216    65A      0.343427    66A      0.353787  
      67A      0.364842    68A      0.367602    69A      0.371404  
      70A      0.386280    71A      0.389325    72A      0.390088  
      73A      0.401985    74A      0.409172    75A      0.423527  
      76A      0.430845    77A      0.431635    78A      0.440822  
      79A      0.448400    80A      0.456111    81A      0.457958  
      82A      0.475445    83A      0.485612    84A      0.503138  
      85A      0.507200    86A      0.517917    87A      0.528639  
      88A      0.538432    89A      0.547199    90A      0.552458  
      91A      0.557562    92A      0.577900    93A      0.579541  
      94A      0.580204    95A      0.593116    96A      0.611128  
      97A      0.630017    98A      0.641760    99A      0.642474  
     100A      0.646751   101A      0.670590   102A      0.680208  
     103A      0.682494   104A      0.686406   105A      0.697131  
     106A      0.699617   107A      0.713921   108A      0.727454  
     109A      0.745458   110A      0.750869   111A      0.766223  
     112A      0.776649   113A      0.783683   114A      0.790009  
     115A      0.793977   116A      0.805593   117A      0.825764  
     118A      0.856004   119A      0.858841   120A      0.860043  
     121A      0.869307   122A      0.886340   123A      0.894079  
     124A      0.904878   125A      0.916451   126A      0.925150  
     127A      0.925966   128A      0.935339   129A      0.940921  
     130A      0.950509   131A      0.955466   132A      0.955682  
     133A      0.971496   134A      0.984739   135A      0.994708  
     136A      0.997179   137A      1.007271   138A      1.025210  
     139A      1.032079   140A      1.041965   141A      1.046398  
     142A      1.062098   143A      1.069925   144A      1.070959  
     145A      1.092278   146A      1.100010   147A      1.104679  
     148A      1.111917   149A      1.136368   150A      1.144432  
     151A      1.159285   152A      1.161504   153A      1.168902  
     154A      1.183458   155A      1.198771   156A      1.199542  
     157A      1.201110   158A      1.215593   159A      1.235553  
     160A      1.243617   161A      1.256577   162A      1.265155  
     163A      1.268292   164A      1.280311   165A      1.301518  
     166A      1.303934   167A      1.328043   168A      1.334437  
     169A      1.339594   170A      1.364453   171A      1.372586  
     172A      1.380789   173A      1.386990   174A      1.389882  
     175A      1.419185   176A      1.423527   177A      1.429293  
     178A      1.465146   179A      1.474160   180A      1.481130  
     181A      1.485662   182A      1.491966   183A      1.495413  
     184A      1.495770   185A      1.501967   186A      1.522790  
     187A      1.523102   188A      1.541752   189A      1.548715  
     190A      1.569813   191A      1.587400   192A      1.591470  
     193A      1.598800   194A      1.625926   195A      1.636509  
     196A      1.643324   197A      1.649260   198A      1.692186  
     199A      1.708039   200A      1.709593   201A      1.740385  
     202A      1.757147   203A      1.769012   204A      1.793398  
     205A      1.815443   206A      1.830516   207A      1.838583  
     208A      1.863079   209A      1.884362   210A      1.917360  
     211A      1.932493   212A      1.938975   213A      1.965232  
     214A      1.992356   215A      2.005072   216A      2.027248  
     217A      2.032781   218A      2.063771   219A      2.073467  
     220A      2.079673   221A      2.107653   222A      2.133771  
     223A      2.147334   224A      2.163645   225A      2.180817  
     226A      2.184038   227A      2.200097   228A      2.213335  
     229A      2.246184   230A      2.251734   231A      2.276747  
     232A      2.278450   233A      2.287174   234A      2.331018  
     235A      2.338805   236A      2.374991   237A      2.384633  
     238A      2.405375   239A      2.420561   240A      2.448914  
     241A      2.450115   242A      2.466231   243A      2.483399  
     244A      2.503619   245A      2.530062   246A      2.539338  
     247A      2.564478   248A      2.568423   249A      2.585464  
     250A      2.597130   251A      2.603389   252A      2.621428  
     253A      2.647786   254A      2.649768   255A      2.662657  
     256A      2.686106   257A      2.707181   258A      2.729824  
     259A      2.745523   260A      2.769833   261A      2.790503  
     262A      2.804217   263A      2.809559   264A      2.843852  
     265A      2.858413   266A      2.871800   267A      2.933791  
     268A      3.016224   269A      3.017006   270A      3.049601  
     271A      3.120067   272A      3.126394   273A      3.141034  
     274A      3.173840   275A      3.200587   276A      3.206148  
     277A      3.287446   278A      3.341914   279A      3.396501  
     280A      3.430952   281A      3.451338   282A      3.458342  
     283A      3.481880   284A      3.506404   285A      3.560144  
     286A      3.608015   287A      3.614337   288A      3.651609  
     289A      3.700175   290A      3.710681   291A      3.738260  
     292A      3.754610   293A      3.794157   294A      3.820336  
     295A      3.850153   296A      3.881604   297A      3.915963  
     298A      3.919544   299A      3.928389   300A      3.974620  
     301A      4.026439   302A      4.089342   303A      4.090326  
     304A      4.116611   305A      4.119105   306A      4.130371  
     307A      4.156044   308A      4.180920   309A      4.187551  
     310A      4.229720   311A      4.231370   312A      4.233654  
     313A      4.241304   314A      4.248284   315A      4.270462  
     316A      4.275584   317A      4.317043   318A      4.342726  
     319A      4.361000   320A      4.371563   321A      4.385339  
     322A      4.401487   323A      4.410753   324A      4.415372  
     325A      4.429017   326A      4.467559   327A      4.470104  
     328A      4.491425   329A      4.542912   330A      4.554089  
     331A      4.598719   332A      4.627415   333A      4.640735  
     334A      4.642459   335A      4.664470   336A      4.713676  
     337A      4.723163   338A      4.759982   339A      4.766261  
     340A      4.803697   341A      4.814978   342A      4.829496  
     343A      4.860521   344A      4.890029   345A      4.902338  
     346A      4.924093   347A      4.939529   348A      4.952908  
     349A      4.955927   350A      4.977119   351A      4.985600  
     352A      5.016761   353A      5.045323   354A      5.072699  
     355A      5.112968   356A      5.121802   357A      5.150681  
     358A      5.170855   359A      5.207936   360A      5.214731  
     361A      5.251297   362A      5.252609   363A      5.255982  
     364A      5.324774   365A      5.362576   366A      5.388921  
     367A      5.415161   368A      5.473656   369A      5.487642  
     370A      5.499134   371A      5.519891   372A      5.543760  
     373A      5.558888   374A      5.570114   375A      5.582156  
     376A      5.607324   377A      5.642854   378A      5.662843  
     379A      5.692389   380A      5.735365   381A      5.740615  
     382A      5.774532   383A      5.775727   384A      5.815584  
     385A      5.827288   386A      5.874152   387A      5.903274  
     388A      5.928061   389A      5.947423   390A      5.992097  
     391A      6.002189   392A      6.118055   393A      6.127800  
     394A      6.152160   395A      6.177809   396A      6.203964  
     397A      6.240060   398A      6.271904   399A      6.324895  
     400A      6.355256   401A      6.402390   402A      6.443440  
     403A      6.479678   404A      6.524099   405A      6.595330  
     406A      6.619873   407A      6.691806   408A      6.773796  
     409A      6.905819   410A      6.923149   411A      6.945450  
     412A      6.987874   413A      7.040011   414A      7.123199  
     415A      7.124710   416A      7.180290   417A      7.188343  
     418A      7.234086   419A      7.357958   420A      7.428991  
     421A      7.468929   422A      7.592756   423A      7.632599  
     424A      7.670395   425A      7.684052   426A      7.764148  
     427A      7.816979   428A      7.954133   429A      8.018382  
     430A      8.181374   431A      8.608876   432A     16.065097  
     433A     17.268072   434A     17.776205   435A     18.008176  
     436A     19.187783   437A     19.220525  

    Final Occupation by Irrep:
              A 
    DOCC [    24 ]

  @DF-RHF Final Energy:  -318.15429135280988

   => Energetics <=

    Nuclear Repulsion Energy =            236.6715904374690922
    One-Electron Energy =                -903.3241179385343003
    Two-Electron Energy =                 348.4982361482552733
    Total Energy =                       -318.1542913528098779

Computation Completed


Properties will be evaluated at   0.000000,   0.000000,   0.000000 [a0]

Properties computed using the SCF density matrix

  Nuclear Dipole Moment: [e a0]
     X:     1.6566      Y:    -1.9506      Z:    -0.0000

  Electronic Dipole Moment: [e a0]
     X:    -1.2644      Y:     1.2853      Z:     0.0000

  Dipole Moment: [e a0]
     X:     0.3922      Y:    -0.6653      Z:    -0.0000     Total:     0.7723

  Dipole Moment: [D]
     X:     0.9969      Y:    -1.6910      Z:    -0.0000     Total:     1.9630


*** tstop() called on node54.bme.utexas.edu at Mon Sep  9 16:33:03 2019
Module time:
	user time   =      78.70 seconds =       1.31 minutes
	system time =       1.41 seconds =       0.02 minutes
	total time  =         21 seconds =       0.35 minutes
Total time:
	user time   =      78.70 seconds =       1.31 minutes
	system time =       1.41 seconds =       0.02 minutes
	total time  =         21 seconds =       0.35 minutes

  //>>>>>>>>>>>>>>>>>>>>>>>>>>>>>>>>>>>//
  //            Monomer A HF           //
  //<<<<<<<<<<<<<<<<<<<<<<<<<<<<<<<<<<<//


*** tstart() called on node54.bme.utexas.edu
*** at Mon Sep  9 16:33:03 2019

   => Loading Basis Set <=

    Name: AUG-CC-PVTZ
    Role: ORBITAL
    Keyword: BASIS
    atoms 1, 7                 entry C          line   235 file /home/xy3866/psi4conda/share/psi4/basis/aug-cc-pvtz.gbs 
    atoms 2, 5-6, 8, 10, 12-13 entry H          line    36 file /home/xy3866/psi4conda/share/psi4/basis/aug-cc-pvtz.gbs 
    atoms 3                    entry O          line   327 file /home/xy3866/psi4conda/share/psi4/basis/aug-cc-pvtz.gbs 
    atoms 4, 9, 11             entry N          line   281 file /home/xy3866/psi4conda/share/psi4/basis/aug-cc-pvtz.gbs 


         ---------------------------------------------------------
                                   SCF
               by Justin Turney, Rob Parrish, Andy Simmonett
                          and Daniel G. A. Smith
                              RHF Reference
                        4 Threads,  30517 MiB Core
         ---------------------------------------------------------

  ==> Geometry <==

    Molecular point group: c1
    Full point group: C1

    Geometry (in Angstrom), charge = 0, multiplicity = 1:

       Center              X                  Y                   Z               Mass       
    ------------   -----------------  -----------------  -----------------  -----------------
         C           -1.886414413451     0.259607177536     0.000010179932    12.000000000000
         H           -2.983928413451     0.325835177536    -0.000010820068     1.007825032230
         O           -1.189436413451     1.270094177536    -0.000003820068    15.994914619570
         N           -1.430460413451    -1.001540822464     0.000001179932    14.003074004430
         H           -0.421898413451    -1.198542822464     0.000000179932     1.007825032230
         H           -2.091044413451    -1.755473822464    -0.000009820068     1.007825032230
      Gh(C)           1.932775486549    -0.246575322464     0.000001279932    12.000000000000
      Gh(H)           3.022687486549    -0.272843322464    -0.000002820068     1.007825032230
      Gh(N)           1.200869586549    -1.308234322464    -0.000000820068    14.003074004430
      Gh(H)           1.800634486549    -2.124553322464    -0.000006720068     1.007825032230
      Gh(N)           1.420600586549     0.998366677536    -0.000002820068    14.003074004430
      Gh(H)           0.413960586549     1.148342677536    -0.000003820068     1.007825032230
      Gh(H)           2.036487586549     1.785919677536    -0.000007820068     1.007825032230

  Running in c1 symmetry.

  Rotational constants: A =      0.18460  B =      0.07681  C =      0.05424 [cm^-1]
  Rotational constants: A =   5534.06712  B =   2302.72289  C =   1626.10240 [MHz]
  Nuclear repulsion =   71.120500652173718

  Charge       = 0
  Multiplicity = 1
  Electrons    = 24
  Nalpha       = 12
  Nbeta        = 12

  ==> Algorithm <==

  SCF Algorithm Type is DF.
  DIIS enabled.
  MOM disabled.
  Fractional occupation disabled.
  Guess Type is SAD.
  Energy threshold   = 1.00e-08
  Density threshold  = 1.00e-08
  Integral threshold = 0.00e+00

  ==> Primary Basis <==

  Basis Set: AUG-CC-PVTZ
    Blend: AUG-CC-PVTZ
    Number of shells: 147
    Number of basis function: 437
    Number of Cartesian functions: 505
    Spherical Harmonics?: true
    Max angular momentum: 3

   => Loading Basis Set <=

    Name: (AUG-CC-PVTZ AUX)
    Role: JKFIT
    Keyword: DF_BASIS_SCF
    atoms 1, 7                 entry C          line   162 file /home/xy3866/psi4conda/share/psi4/basis/aug-cc-pvtz-jkfit.gbs 
    atoms 2, 5-6, 8, 10, 12-13 entry H          line    70 file /home/xy3866/psi4conda/share/psi4/basis/aug-cc-pvtz-jkfit.gbs 
    atoms 3                    entry O          line   286 file /home/xy3866/psi4conda/share/psi4/basis/aug-cc-pvtz-jkfit.gbs 
    atoms 4, 9, 11             entry N          line   224 file /home/xy3866/psi4conda/share/psi4/basis/aug-cc-pvtz-jkfit.gbs 

  ==> Pre-Iterations <==

   -------------------------------------------------------
    Irrep   Nso     Nmo     Nalpha   Nbeta   Ndocc  Nsocc
   -------------------------------------------------------
     A        437     437       0       0       0       0
   -------------------------------------------------------
    Total     437     437      12      12      12       0
   -------------------------------------------------------

  ==> Integral Setup <==

  ==> DiskDFJK: Density-Fitted J/K Matrices <==

    J tasked:                  Yes
    K tasked:                  Yes
    wK tasked:                  No
    OpenMP threads:              4
    Integrals threads:           4
    Memory [MiB]:            22888
    Algorithm:                Core
    Integral Cache:           LOAD
    Schwarz Cutoff:          1E-12
    Fitting Condition:       1E-10

   => Auxiliary Basis Set <=

  Basis Set: (AUG-CC-PVTZ AUX)
    Blend: AUG-CC-PVTZ-JKFIT
    Number of shells: 278
    Number of basis function: 946
    Number of Cartesian functions: 1171
    Spherical Harmonics?: true
    Max angular momentum: 4

  Minimum eigenvalue in the overlap matrix is 2.2132224679E-05.
  Using Symmetric Orthogonalization.

  SCF Guess: Superposition of Atomic Densities via on-the-fly atomic UHF.

  ==> Iterations <==

                           Total Energy        Delta E     RMS |[F,P]|

   @DF-RHF iter SAD:  -168.19954688720037   -1.68200e+02   0.00000e+00 
   @DF-RHF iter   1:  -168.87908832293095   -6.79541e-01   1.22475e-03 DIIS
   @DF-RHF iter   2:  -168.95722156230420   -7.81332e-02   8.37967e-04 DIIS
   @DF-RHF iter   3:  -169.00108010594727   -4.38585e-02   1.20120e-04 DIIS
   @DF-RHF iter   4:  -169.00252526162311   -1.44516e-03   5.20296e-05 DIIS
   @DF-RHF iter   5:  -169.00283082444403   -3.05563e-04   1.04710e-05 DIIS
   @DF-RHF iter   6:  -169.00286132815921   -3.05037e-05   4.99632e-06 DIIS
   @DF-RHF iter   7:  -169.00286774169248   -6.41353e-06   2.01090e-06 DIIS
   @DF-RHF iter   8:  -169.00286886403762   -1.12235e-06   6.08819e-07 DIIS
   @DF-RHF iter   9:  -169.00286896966367   -1.05626e-07   1.67967e-07 DIIS
   @DF-RHF iter  10:  -169.00286897797281   -8.30914e-09   4.14638e-08 DIIS
   @DF-RHF iter  11:  -169.00286897838663   -4.13820e-10   7.43306e-09 DIIS
  Energy and wave function converged.


  ==> Post-Iterations <==

    Orbital Energies [Eh]
    ---------------------

    Doubly Occupied:                                                      

       1A    -20.526709     2A    -15.602856     3A    -11.356497  
       4A     -1.376554     5A     -1.226886     6A     -0.853740  
       7A     -0.755400     8A     -0.676729     9A     -0.602573  
      10A     -0.571847    11A     -0.434960    12A     -0.422006  

    Virtual:                                                              

      13A      0.017495    14A      0.029142    15A      0.038679  
      16A      0.050938    17A      0.055399    18A      0.070220  
      19A      0.072647    20A      0.086659    21A      0.086753  
      22A      0.090633    23A      0.107641    24A      0.114998  
      25A      0.122649    26A      0.127054    27A      0.135184  
      28A      0.140083    29A      0.147584    30A      0.151636  
      31A      0.159055    32A      0.168081    33A      0.171967  
      34A      0.189150    35A      0.193708    36A      0.202205  
      37A      0.210395    38A      0.219634    39A      0.244512  
      40A      0.252504    41A      0.255529    42A      0.257609  
      43A      0.269800    44A      0.279685    45A      0.289318  
      46A      0.293644    47A      0.295974    48A      0.310758  
      49A      0.312968    50A      0.323958    51A      0.333503  
      52A      0.341199    53A      0.348570    54A      0.348697  
      55A      0.360900    56A      0.360991    57A      0.365611  
      58A      0.368946    59A      0.379974    60A      0.392296  
      61A      0.393593    62A      0.400096    63A      0.409732  
      64A      0.420651    65A      0.427505    66A      0.428838  
      67A      0.438289    68A      0.443982    69A      0.449990  
      70A      0.462553    71A      0.466471    72A      0.488947  
      73A      0.501923    74A      0.504514    75A      0.520023  
      76A      0.538623    77A      0.549185    78A      0.555585  
      79A      0.565827    80A      0.571531    81A      0.579081  
      82A      0.588495    83A      0.599395    84A      0.619179  
      85A      0.639306    86A      0.645573    87A      0.648591  
      88A      0.654133    89A      0.664200    90A      0.683987  
      91A      0.701528    92A      0.714795    93A      0.724731  
      94A      0.743055    95A      0.749953    96A      0.752410  
      97A      0.767574    98A      0.782803    99A      0.784371  
     100A      0.791890   101A      0.793219   102A      0.799665  
     103A      0.810369   104A      0.821731   105A      0.834399  
     106A      0.835656   107A      0.862884   108A      0.868521  
     109A      0.886425   110A      0.896942   111A      0.897551  
     112A      0.904526   113A      0.910854   114A      0.919097  
     115A      0.929341   116A      0.934230   117A      0.935874  
     118A      0.948556   119A      0.964819   120A      0.967734  
     121A      0.988395   122A      0.996100   123A      1.016165  
     124A      1.021268   125A      1.037949   126A      1.040380  
     127A      1.051034   128A      1.062266   129A      1.062892  
     130A      1.074454   131A      1.080387   132A      1.083916  
     133A      1.098769   134A      1.103362   135A      1.123668  
     136A      1.128185   137A      1.134563   138A      1.149832  
     139A      1.160663   140A      1.169123   141A      1.181397  
     142A      1.189051   143A      1.198004   144A      1.211927  
     145A      1.231714   146A      1.242840   147A      1.260395  
     148A      1.264065   149A      1.269641   150A      1.278408  
     151A      1.316102   152A      1.326165   153A      1.332415  
     154A      1.340683   155A      1.345715   156A      1.376646  
     157A      1.377823   158A      1.396066   159A      1.403073  
     160A      1.417352   161A      1.419118   162A      1.458613  
     163A      1.470392   164A      1.471160   165A      1.487263  
     166A      1.497802   167A      1.503048   168A      1.508452  
     169A      1.515214   170A      1.538420   171A      1.540802  
     172A      1.553977   173A      1.578095   174A      1.593835  
     175A      1.596661   176A      1.625948   177A      1.640407  
     178A      1.644334   179A      1.652679   180A      1.656409  
     181A      1.678233   182A      1.692798   183A      1.698753  
     184A      1.711694   185A      1.725726   186A      1.729630  
     187A      1.742559   188A      1.751593   189A      1.752329  
     190A      1.758736   191A      1.779740   192A      1.794922  
     193A      1.811719   194A      1.818667   195A      1.833743  
     196A      1.848359   197A      1.863825   198A      1.872266  
     199A      1.909276   200A      1.939820   201A      1.976038  
     202A      1.998705   203A      2.024095   204A      2.051503  
     205A      2.064919   206A      2.071128   207A      2.080559  
     208A      2.091875   209A      2.104284   210A      2.117165  
     211A      2.133102   212A      2.156339   213A      2.175769  
     214A      2.182054   215A      2.248813   216A      2.272208  
     217A      2.308101   218A      2.317845   219A      2.354120  
     220A      2.364099   221A      2.367742   222A      2.396272  
     223A      2.397576   224A      2.411714   225A      2.414799  
     226A      2.442766   227A      2.456352   228A      2.459059  
     229A      2.475088   230A      2.500990   231A      2.541496  
     232A      2.548113   233A      2.554126   234A      2.558754  
     235A      2.590471   236A      2.621624   237A      2.653716  
     238A      2.653764   239A      2.672273   240A      2.673713  
     241A      2.729225   242A      2.748332   243A      2.762293  
     244A      2.768415   245A      2.785203   246A      2.805591  
     247A      2.811254   248A      2.833435   249A      2.850121  
     250A      2.876809   251A      2.886699   252A      2.916729  
     253A      2.962727   254A      2.970141   255A      2.992394  
     256A      3.008181   257A      3.043500   258A      3.071646  
     259A      3.085819   260A      3.124504   261A      3.153179  
     262A      3.203660   263A      3.208030   264A      3.228021  
     265A      3.231802   266A      3.257279   267A      3.275857  
     268A      3.330905   269A      3.401532   270A      3.409708  
     271A      3.439043   272A      3.479976   273A      3.500342  
     274A      3.608131   275A      3.621354   276A      3.644377  
     277A      3.656064   278A      3.698545   279A      3.723080  
     280A      3.781094   281A      3.840647   282A      3.879160  
     283A      3.913513   284A      3.972601   285A      4.013845  
     286A      4.074616   287A      4.093718   288A      4.117193  
     289A      4.122927   290A      4.161892   291A      4.176060  
     292A      4.190978   293A      4.212617   294A      4.236101  
     295A      4.264401   296A      4.270495   297A      4.334607  
     298A      4.377119   299A      4.385812   300A      4.421301  
     301A      4.442222   302A      4.447578   303A      4.461089  
     304A      4.467488   305A      4.505688   306A      4.525092  
     307A      4.568950   308A      4.581358   309A      4.590413  
     310A      4.662900   311A      4.686881   312A      4.695194  
     313A      4.717137   314A      4.744951   315A      4.779639  
     316A      4.784238   317A      4.811572   318A      4.841919  
     319A      4.854990   320A      4.875928   321A      4.899869  
     322A      4.913869   323A      4.925371   324A      4.929067  
     325A      4.950563   326A      4.975609   327A      4.986954  
     328A      4.990948   329A      4.999814   330A      5.046449  
     331A      5.057742   332A      5.075121   333A      5.096258  
     334A      5.133377   335A      5.162770   336A      5.210180  
     337A      5.228628   338A      5.250512   339A      5.255332  
     340A      5.270367   341A      5.316105   342A      5.341564  
     343A      5.352694   344A      5.389261   345A      5.414666  
     346A      5.424767   347A      5.455370   348A      5.468786  
     349A      5.473040   350A      5.494297   351A      5.525842  
     352A      5.578253   353A      5.626845   354A      5.652949  
     355A      5.664830   356A      5.742456   357A      5.755149  
     358A      5.792747   359A      5.826591   360A      5.852540  
     361A      5.906464   362A      5.911038   363A      6.006355  
     364A      6.049381   365A      6.069099   366A      6.116209  
     367A      6.118976   368A      6.183408   369A      6.196513  
     370A      6.204536   371A      6.236053   372A      6.312116  
     373A      6.315155   374A      6.354226   375A      6.450240  
     376A      6.472232   377A      6.478188   378A      6.484042  
     379A      6.554446   380A      6.577296   381A      6.606166  
     382A      6.646766   383A      6.695945   384A      6.716088  
     385A      6.752783   386A      6.877570   387A      6.905105  
     388A      6.924483   389A      6.934242   390A      6.958811  
     391A      7.017464   392A      7.103858   393A      7.141130  
     394A      7.168840   395A      7.196041   396A      7.245863  
     397A      7.324018   398A      7.370763   399A      7.408381  
     400A      7.449588   401A      7.484688   402A      7.509487  
     403A      7.584877   404A      7.639260   405A      7.647075  
     406A      7.678791   407A      7.702795   408A      7.704826  
     409A      7.799922   410A      7.819412   411A      7.828880  
     412A      7.974757   413A      8.047482   414A      8.137015  
     415A      8.184206   416A      8.384905   417A      8.494925  
     418A      8.638109   419A      8.653843   420A      9.061192  
     421A      9.359498   422A      9.454309   423A      9.600872  
     424A      9.621658   425A     10.245549   426A     10.807556  
     427A     11.273187   428A     11.679300   429A     11.815288  
     430A     12.224770   431A     13.015688   432A     16.088762  
     433A     17.957026   434A     19.132322   435A     52.122524  
     436A     59.666685   437A     62.932126  

    Final Occupation by Irrep:
              A 
    DOCC [    12 ]

  @DF-RHF Final Energy:  -169.00286897838663

   => Energetics <=

    Nuclear Repulsion Energy =             71.1205006521737175
    One-Electron Energy =                -371.4332243268609091
    Two-Electron Energy =                 131.3098546963005333
    Total Energy =                       -169.0028689783866298

Computation Completed


Properties will be evaluated at   0.000000,   0.000000,   0.000000 [a0]

Properties computed using the SCF density matrix

  Nuclear Dipole Moment: [e a0]
     X:   -68.6803      Y:     3.9296      Z:     0.0000

  Electronic Dipole Moment: [e a0]
     X:    68.1002      Y:    -5.5894      Z:    -0.0000

  Dipole Moment: [e a0]
     X:    -0.5801      Y:    -1.6599      Z:     0.0000     Total:     1.7583

  Dipole Moment: [D]
     X:    -1.4745      Y:    -4.2190      Z:     0.0000     Total:     4.4692


*** tstop() called on node54.bme.utexas.edu at Mon Sep  9 16:33:15 2019
Module time:
	user time   =      41.19 seconds =       0.69 minutes
	system time =       0.78 seconds =       0.01 minutes
	total time  =         12 seconds =       0.20 minutes
Total time:
	user time   =     119.91 seconds =       2.00 minutes
	system time =       2.19 seconds =       0.04 minutes
	total time  =         33 seconds =       0.55 minutes

  //>>>>>>>>>>>>>>>>>>>>>>>>>>>>>>>>>>>//
  //            Monomer B HF           //
  //<<<<<<<<<<<<<<<<<<<<<<<<<<<<<<<<<<<//


*** tstart() called on node54.bme.utexas.edu
*** at Mon Sep  9 16:33:15 2019

   => Loading Basis Set <=

    Name: AUG-CC-PVTZ
    Role: ORBITAL
    Keyword: BASIS
    atoms 1, 7                 entry C          line   235 file /home/xy3866/psi4conda/share/psi4/basis/aug-cc-pvtz.gbs 
    atoms 2, 5-6, 8, 10, 12-13 entry H          line    36 file /home/xy3866/psi4conda/share/psi4/basis/aug-cc-pvtz.gbs 
    atoms 3                    entry O          line   327 file /home/xy3866/psi4conda/share/psi4/basis/aug-cc-pvtz.gbs 
    atoms 4, 9, 11             entry N          line   281 file /home/xy3866/psi4conda/share/psi4/basis/aug-cc-pvtz.gbs 


         ---------------------------------------------------------
                                   SCF
               by Justin Turney, Rob Parrish, Andy Simmonett
                          and Daniel G. A. Smith
                              RHF Reference
                        4 Threads,  30517 MiB Core
         ---------------------------------------------------------

  ==> Geometry <==

    Molecular point group: c1
    Full point group: C1

    Geometry (in Angstrom), charge = 0, multiplicity = 1:

       Center              X                  Y                   Z               Mass       
    ------------   -----------------  -----------------  -----------------  -----------------
      Gh(C)          -1.886414413451     0.259607177536     0.000010179932    12.000000000000
      Gh(H)          -2.983928413451     0.325835177536    -0.000010820068     1.007825032230
      Gh(O)          -1.189436413451     1.270094177536    -0.000003820068    15.994914619570
      Gh(N)          -1.430460413451    -1.001540822464     0.000001179932    14.003074004430
      Gh(H)          -0.421898413451    -1.198542822464     0.000000179932     1.007825032230
      Gh(H)          -2.091044413451    -1.755473822464    -0.000009820068     1.007825032230
         C            1.932775486549    -0.246575322464     0.000001279932    12.000000000000
         H            3.022687486549    -0.272843322464    -0.000002820068     1.007825032230
         N            1.200869586549    -1.308234322464    -0.000000820068    14.003074004430
         H            1.800634486549    -2.124553322464    -0.000006720068     1.007825032230
         N            1.420600586549     0.998366677536    -0.000002820068    14.003074004430
         H            0.413960586549     1.148342677536    -0.000003820068     1.007825032230
         H            2.036487586549     1.785919677536    -0.000007820068     1.007825032230

  Running in c1 symmetry.

  Rotational constants: A =      0.18460  B =      0.07681  C =      0.05424 [cm^-1]
  Rotational constants: A =   5534.06712  B =   2302.72289  C =   1626.10240 [MHz]
  Nuclear repulsion =   72.220841722661987

  Charge       = 0
  Multiplicity = 1
  Electrons    = 24
  Nalpha       = 12
  Nbeta        = 12

  ==> Algorithm <==

  SCF Algorithm Type is DF.
  DIIS enabled.
  MOM disabled.
  Fractional occupation disabled.
  Guess Type is SAD.
  Energy threshold   = 1.00e-08
  Density threshold  = 1.00e-08
  Integral threshold = 0.00e+00

  ==> Primary Basis <==

  Basis Set: AUG-CC-PVTZ
    Blend: AUG-CC-PVTZ
    Number of shells: 147
    Number of basis function: 437
    Number of Cartesian functions: 505
    Spherical Harmonics?: true
    Max angular momentum: 3

   => Loading Basis Set <=

    Name: (AUG-CC-PVTZ AUX)
    Role: JKFIT
    Keyword: DF_BASIS_SCF
    atoms 1, 7                 entry C          line   162 file /home/xy3866/psi4conda/share/psi4/basis/aug-cc-pvtz-jkfit.gbs 
    atoms 2, 5-6, 8, 10, 12-13 entry H          line    70 file /home/xy3866/psi4conda/share/psi4/basis/aug-cc-pvtz-jkfit.gbs 
    atoms 3                    entry O          line   286 file /home/xy3866/psi4conda/share/psi4/basis/aug-cc-pvtz-jkfit.gbs 
    atoms 4, 9, 11             entry N          line   224 file /home/xy3866/psi4conda/share/psi4/basis/aug-cc-pvtz-jkfit.gbs 

  ==> Pre-Iterations <==

   -------------------------------------------------------
    Irrep   Nso     Nmo     Nalpha   Nbeta   Ndocc  Nsocc
   -------------------------------------------------------
     A        437     437       0       0       0       0
   -------------------------------------------------------
    Total     437     437      12      12      12       0
   -------------------------------------------------------

  ==> Integral Setup <==

  ==> DiskDFJK: Density-Fitted J/K Matrices <==

    J tasked:                  Yes
    K tasked:                  Yes
    wK tasked:                  No
    OpenMP threads:              4
    Integrals threads:           4
    Memory [MiB]:            22888
    Algorithm:                Core
    Integral Cache:           LOAD
    Schwarz Cutoff:          1E-12
    Fitting Condition:       1E-10

   => Auxiliary Basis Set <=

  Basis Set: (AUG-CC-PVTZ AUX)
    Blend: AUG-CC-PVTZ-JKFIT
    Number of shells: 278
    Number of basis function: 946
    Number of Cartesian functions: 1171
    Spherical Harmonics?: true
    Max angular momentum: 4

  Minimum eigenvalue in the overlap matrix is 2.2132224679E-05.
  Using Symmetric Orthogonalization.

  SCF Guess: Superposition of Atomic Densities via on-the-fly atomic UHF.

  ==> Iterations <==

                           Total Energy        Delta E     RMS |[F,P]|

   @DF-RHF iter SAD:  -148.39145789472039   -1.48391e+02   0.00000e+00 
   @DF-RHF iter   1:  -148.99810082907138   -6.06643e-01   1.25644e-03 DIIS
   @DF-RHF iter   2:  -149.10009655917304   -1.01996e-01   7.40124e-04 DIIS
   @DF-RHF iter   3:  -149.14187579553942   -4.17792e-02   1.03371e-04 DIIS
   @DF-RHF iter   4:  -149.14328491103169   -1.40912e-03   5.11184e-05 DIIS
   @DF-RHF iter   5:  -149.14356085848726   -2.75947e-04   9.28950e-06 DIIS
   @DF-RHF iter   6:  -149.14358912579689   -2.82673e-05   4.37889e-06 DIIS
   @DF-RHF iter   7:  -149.14359375806407   -4.63227e-06   1.76442e-06 DIIS
   @DF-RHF iter   8:  -149.14359468648550   -9.28421e-07   5.20651e-07 DIIS
   @DF-RHF iter   9:  -149.14359477098631   -8.45008e-08   1.58900e-07 DIIS
   @DF-RHF iter  10:  -149.14359477841677   -7.43046e-09   3.95646e-08 DIIS
   @DF-RHF iter  11:  -149.14359477888496   -4.68191e-10   7.55857e-09 DIIS
  Energy and wave function converged.


  ==> Post-Iterations <==

    Orbital Energies [Eh]
    ---------------------

    Doubly Occupied:                                                      

       1A    -15.580933     2A    -15.519587     3A    -11.314718  
       4A     -1.259444     5A     -1.137350     6A     -0.830836  
       7A     -0.746501     8A     -0.640065     9A     -0.616573  
      10A     -0.530112    11A     -0.419652    12A     -0.359595  

    Virtual:                                                              

      13A      0.022350    14A      0.031477    15A      0.037694  
      16A      0.052075    17A      0.056865    18A      0.070575  
      19A      0.073791    20A      0.086208    21A      0.087251  
      22A      0.099586    23A      0.103392    24A      0.116679  
      25A      0.127463    26A      0.133947    27A      0.138969  
      28A      0.142834    29A      0.148301    30A      0.156007  
      31A      0.160054    32A      0.173650    33A      0.175555  
      34A      0.186434    35A      0.206545    36A      0.208158  
      37A      0.217559    38A      0.220502    39A      0.230383  
      40A      0.241862    41A      0.246642    42A      0.256174  
      43A      0.261450    44A      0.282870    45A      0.285325  
      46A      0.307089    47A      0.307523    48A      0.310711  
      49A      0.321060    50A      0.322085    51A      0.329431  
      52A      0.336498    53A      0.346487    54A      0.359644  
      55A      0.362212    56A      0.366028    57A      0.371208  
      58A      0.380394    59A      0.396295    60A      0.401351  
      61A      0.402134    62A      0.407235    63A      0.417823  
      64A      0.421329    65A      0.425073    66A      0.428330  
      67A      0.442412    68A      0.454265    69A      0.454975  
      70A      0.474169    71A      0.479435    72A      0.493020  
      73A      0.511134    74A      0.511159    75A      0.522720  
      76A      0.530861    77A      0.534942    78A      0.538610  
      79A      0.560558    80A      0.566603    81A      0.576641  
      82A      0.593254    83A      0.598934    84A      0.635970  
      85A      0.657551    86A      0.658287    87A      0.663711  
      88A      0.667161    89A      0.678027    90A      0.682967  
      91A      0.689656    92A      0.699934    93A      0.703622  
      94A      0.717163    95A      0.739280    96A      0.744378  
      97A      0.747431    98A      0.770726    99A      0.772935  
     100A      0.788706   101A      0.789170   102A      0.817536  
     103A      0.822712   104A      0.830874   105A      0.839943  
     106A      0.859701   107A      0.865672   108A      0.885373  
     109A      0.893227   110A      0.896656   111A      0.905972  
     112A      0.916852   113A      0.918573   114A      0.926952  
     115A      0.929396   116A      0.941893   117A      0.948351  
     118A      0.962458   119A      0.975363   120A      0.981298  
     121A      0.983946   122A      0.990836   123A      1.005383  
     124A      1.019869   125A      1.027282   126A      1.030159  
     127A      1.039936   128A      1.073055   129A      1.075965  
     130A      1.077602   131A      1.088553   132A      1.093291  
     133A      1.103158   134A      1.112907   135A      1.114128  
     136A      1.126411   137A      1.130110   138A      1.137225  
     139A      1.149671   140A      1.175348   141A      1.177301  
     142A      1.206965   143A      1.210169   144A      1.212414  
     145A      1.216352   146A      1.219071   147A      1.238883  
     148A      1.269434   149A      1.273042   150A      1.285215  
     151A      1.286564   152A      1.306904   153A      1.325777  
     154A      1.351567   155A      1.363771   156A      1.365484  
     157A      1.381005   158A      1.388132   159A      1.388450  
     160A      1.411693   161A      1.419521   162A      1.425255  
     163A      1.434257   164A      1.444440   165A      1.459448  
     166A      1.481783   167A      1.483681   168A      1.498394  
     169A      1.509855   170A      1.528041   171A      1.535840  
     172A      1.541109   173A      1.554271   174A      1.566952  
     175A      1.583172   176A      1.610803   177A      1.618820  
     178A      1.649775   179A      1.670458   180A      1.672131  
     181A      1.688566   182A      1.700193   183A      1.706887  
     184A      1.710060   185A      1.721835   186A      1.726220  
     187A      1.748675   188A      1.759647   189A      1.767019  
     190A      1.781929   191A      1.800984   192A      1.801867  
     193A      1.832623   194A      1.870197   195A      1.874382  
     196A      1.900815   197A      1.904408   198A      1.922625  
     199A      1.959726   200A      1.963534   201A      1.973938  
     202A      1.984544   203A      2.016869   204A      2.030303  
     205A      2.073208   206A      2.097711   207A      2.100859  
     208A      2.113321   209A      2.129095   210A      2.133715  
     211A      2.135585   212A      2.151346   213A      2.169770  
     214A      2.203473   215A      2.211129   216A      2.232664  
     217A      2.235329   218A      2.247096   219A      2.340817  
     220A      2.347832   221A      2.369279   222A      2.382480  
     223A      2.400416   224A      2.403957   225A      2.439933  
     226A      2.440538   227A      2.476272   228A      2.490152  
     229A      2.490358   230A      2.524829   231A      2.545765  
     232A      2.564450   233A      2.580916   234A      2.617152  
     235A      2.623750   236A      2.628044   237A      2.636643  
     238A      2.654339   239A      2.678571   240A      2.695173  
     241A      2.696512   242A      2.720743   243A      2.742126  
     244A      2.742637   245A      2.758220   246A      2.792473  
     247A      2.829127   248A      2.830932   249A      2.884743  
     250A      2.897859   251A      2.926199   252A      2.936307  
     253A      2.976850   254A      2.991642   255A      2.993772  
     256A      3.051444   257A      3.063812   258A      3.114129  
     259A      3.132194   260A      3.172302   261A      3.175680  
     262A      3.190259   263A      3.214163   264A      3.239889  
     265A      3.284313   266A      3.328857   267A      3.370390  
     268A      3.427734   269A      3.452301   270A      3.496316  
     271A      3.501313   272A      3.560269   273A      3.565254  
     274A      3.604956   275A      3.630059   276A      3.630875  
     277A      3.704818   278A      3.754390   279A      3.812361  
     280A      3.832135   281A      3.842742   282A      3.881271  
     283A      3.895519   284A      3.944441   285A      3.980054  
     286A      4.017884   287A      4.061131   288A      4.063515  
     289A      4.090559   290A      4.098627   291A      4.133836  
     292A      4.161303   293A      4.183089   294A      4.193140  
     295A      4.203358   296A      4.227082   297A      4.230875  
     298A      4.273676   299A      4.300635   300A      4.345468  
     301A      4.355184   302A      4.362300   303A      4.407356  
     304A      4.411622   305A      4.444991   306A      4.482126  
     307A      4.507756   308A      4.584650   309A      4.586736  
     310A      4.607803   311A      4.616090   312A      4.622379  
     313A      4.681887   314A      4.691014   315A      4.699777  
     316A      4.735071   317A      4.762380   318A      4.793035  
     319A      4.797945   320A      4.842320   321A      4.846292  
     322A      4.863307   323A      4.884959   324A      4.900709  
     325A      4.907767   326A      4.937161   327A      4.938567  
     328A      4.985065   329A      4.993542   330A      5.010217  
     331A      5.030282   332A      5.044282   333A      5.049849  
     334A      5.073540   335A      5.127731   336A      5.145999  
     337A      5.164171   338A      5.188841   339A      5.201953  
     340A      5.250066   341A      5.251221   342A      5.283050  
     343A      5.305463   344A      5.336459   345A      5.343829  
     346A      5.366466   347A      5.390922   348A      5.396566  
     349A      5.450449   350A      5.466640   351A      5.499180  
     352A      5.503252   353A      5.523594   354A      5.541242  
     355A      5.560334   356A      5.575038   357A      5.582966  
     358A      5.660539   359A      5.667435   360A      5.688524  
     361A      5.722056   362A      5.770381   363A      5.809881  
     364A      5.814131   365A      5.854206   366A      5.874000  
     367A      5.876271   368A      5.939493   369A      5.964481  
     370A      6.012010   371A      6.042741   372A      6.125348  
     373A      6.132842   374A      6.157282   375A      6.180566  
     376A      6.197031   377A      6.246461   378A      6.288275  
     379A      6.322953   380A      6.332525   381A      6.392558  
     382A      6.545718   383A      6.609058   384A      6.628721  
     385A      6.633648   386A      6.699305   387A      6.717499  
     388A      6.736719   389A      6.775934   390A      6.812181  
     391A      6.839691   392A      6.927190   393A      6.979449  
     394A      7.039148   395A      7.098264   396A      7.175312  
     397A      7.392177   398A      7.490579   399A      7.551603  
     400A      7.617394   401A      7.672707   402A      7.760061  
     403A      7.763740   404A      7.767135   405A      7.782572  
     406A      7.836177   407A      7.893269   408A      8.026401  
     409A      8.031399   410A      8.116863   411A      8.168698  
     412A      8.251451   413A      8.505931   414A      8.695318  
     415A      8.949975   416A      9.191419   417A      9.466860  
     418A      9.602077   419A      9.816287   420A      9.879741  
     421A     10.094305   422A     10.206712   423A     10.664830  
     424A     10.801392   425A     11.265144   426A     11.822261  
     427A     11.872459   428A     12.523671   429A     12.772316  
     430A     13.048850   431A     14.009151   432A     17.268402  
     433A     17.892719   434A     19.194954   435A     51.992645  
     436A     62.117385   437A     67.519806  

    Final Occupation by Irrep:
              A 
    DOCC [    12 ]

  @DF-RHF Final Energy:  -149.14359477888496

   => Energetics <=

    Nuclear Repulsion Energy =             72.2208417226619872
    One-Electron Energy =                -344.8181359370160521
    Two-Electron Energy =                 123.4536994354691046
    Total Energy =                       -149.1435947788849603

Computation Completed


Properties will be evaluated at   0.000000,   0.000000,   0.000000 [a0]

Properties computed using the SCF density matrix

  Nuclear Dipole Moment: [e a0]
     X:    70.3370      Y:    -5.8802      Z:    -0.0001

  Electronic Dipole Moment: [e a0]
     X:   -69.4938      Y:     6.8507      Z:     0.0001

  Dipole Moment: [e a0]
     X:     0.8431      Y:     0.9705      Z:    -0.0000     Total:     1.2856

  Dipole Moment: [D]
     X:     2.1431      Y:     2.4667      Z:    -0.0000     Total:     3.2676


*** tstop() called on node54.bme.utexas.edu at Mon Sep  9 16:33:27 2019
Module time:
	user time   =      42.00 seconds =       0.70 minutes
	system time =       0.75 seconds =       0.01 minutes
	total time  =         12 seconds =       0.20 minutes
Total time:
	user time   =     161.94 seconds =       2.70 minutes
	system time =       2.94 seconds =       0.05 minutes
	total time  =         45 seconds =       0.75 minutes
  Constructing Basis Sets for SAPT...

   => Loading Basis Set <=

    Name: (AUG-CC-PVTZ AUX)
    Role: RIFIT
    Keyword: DF_BASIS_SAPT
    atoms 1, 7                 entry C          line   148 file /home/xy3866/psi4conda/share/psi4/basis/aug-cc-pvtz-ri.gbs 
    atoms 2, 5-6, 8, 10, 12-13 entry H          line    30 file /home/xy3866/psi4conda/share/psi4/basis/aug-cc-pvtz-ri.gbs 
    atoms 3                    entry O          line   264 file /home/xy3866/psi4conda/share/psi4/basis/aug-cc-pvtz-ri.gbs 
    atoms 4, 9, 11             entry N          line   206 file /home/xy3866/psi4conda/share/psi4/basis/aug-cc-pvtz-ri.gbs 


  //>>>>>>>>>>>>>>>>>>>>>>>>>>>>>>>>>>>//
  //               SAPT2+              //
  //<<<<<<<<<<<<<<<<<<<<<<<<<<<<<<<<<<<//


*** tstart() called on node54.bme.utexas.edu
*** at Mon Sep  9 16:33:27 2019

        SAPT2+  
    Ed Hohenstein
     6 June 2009

      Orbital Information
  --------------------------
    NSO        =       437
    NMO        =       437
    NRI        =       958
    NOCC A     =        12
    NOCC B     =        12
    FOCC A     =         3
    FOCC B     =         3
    NVIR A     =       425
    NVIR B     =       425

    Estimated memory usage: 2008.5 MB

    Natural Orbital Cutoff:   1.000E-06
    Disp(T3) Truncation:            Yes
    CCD (vv|vv) Truncation:         Yes
    MBPT T2 Truncation:             Yes

    Monomer A: 239 virtual orbitals dropped
    Monomer B: 222 virtual orbitals dropped

    Elst10,r            =    -0.071304264887 [Eh]
    Exch10 (S^2)        =     0.098176187585 [Eh]
    Exch10              =     0.101402932679 [Eh]
    Ind20,r (A<-B)      =    -0.020565246026 [Eh]
    Ind20,r (B<-A)      =    -0.028975372627 [Eh]
    Ind20,r             =    -0.049540618654 [Eh]
    Exch-Ind20,r (A<-B) =     0.011290423752 [Eh]
    Exch-Ind20,r (B<-A) =     0.017602061560 [Eh]
    Exch-Ind20,r        =     0.028892485313 [Eh]
    Disp20              =    -0.026852003706 [Eh]
    Disp20 (NO)         =    -0.023619993074 [Eh]
    Exch-Disp20         =     0.006041533986 [Eh]
    Elst12,r            =     0.000463587764 [Eh]
    Exch11              =     0.001092901673 [Eh]
    Exch12              =     0.006957144628 [Eh]
    Ind22               =    -0.005363556387 [Eh]
    Disp21              =     0.002400066672 [Eh]
    Disp22 (SDQ)        =     0.000075320149 [Eh]

    (i =   1 of   9)         27 seconds
    (i =   2 of   9)         55 seconds
    (i =   3 of   9)         82 seconds
    (i =   4 of   9)        109 seconds
    (i =   5 of   9)        137 seconds
    (i =   6 of   9)        164 seconds
    (i =   7 of   9)        191 seconds
    (i =   8 of   9)        218 seconds
    (i =   9 of   9)        246 seconds

    Disp220 (T)         =    -0.002074544824 [Eh]

    (i =   1 of   9)         32 seconds
    (i =   2 of   9)         64 seconds
    (i =   3 of   9)         95 seconds
    (i =   4 of   9)        127 seconds
    (i =   5 of   9)        159 seconds
    (i =   6 of   9)        191 seconds
    (i =   7 of   9)        223 seconds
    (i =   8 of   9)        255 seconds
    (i =   9 of   9)        287 seconds

    Disp202 (T)         =    -0.001909079015 [Eh]

    Disp22 (T)          =    -0.003983623839 [Eh]

    Est. Disp220 (T)    =    -0.002358412431 [Eh]
    Est. Disp202 (T)    =    -0.002170305327 [Eh]

    Est. Disp22 (T)     =    -0.004528717759 [Eh]

    SAPT Results 
  --------------------------------------------------------------------------------------------------------
    Electrostatics                -70.84067712 [mEh]     -44.45319602 [kcal/mol]    -185.99217216 [kJ/mol]
      Elst10,r                    -71.30426489 [mEh]     -44.74410174 [kcal/mol]    -187.20932167 [kJ/mol]
      Elst12,r                      0.46358776 [mEh]       0.29090571 [kcal/mol]       1.21714951 [kJ/mol]

    Exchange                      109.45297898 [mEh]      68.68278124 [kcal/mol]     287.36875672 [kJ/mol]
      Exch10                      101.40293268 [mEh]      63.63130092 [kcal/mol]     266.23336307 [kJ/mol]
      Exch10(S^2)                  98.17618758 [mEh]      61.60648781 [kcal/mol]     257.76154499 [kJ/mol]
      Exch11(S^2)                   1.09290167 [mEh]       0.68580615 [kcal/mol]       2.86941295 [kJ/mol]
      Exch12(S^2)                   6.95714463 [mEh]       4.36567416 [kcal/mol]      18.26598070 [kJ/mol]

    Induction                     -40.16175070 [mEh]     -25.20187905 [kcal/mol]    -105.44466195 [kJ/mol]
      Ind20,r                     -49.54061865 [mEh]     -31.08720754 [kcal/mol]    -130.06887636 [kJ/mol]
      Ind22                        -5.36355639 [mEh]      -3.36568245 [kcal/mol]     -14.08201535 [kJ/mol]
      Exch-Ind20,r                 28.89248531 [mEh]      18.13030825 [kcal/mol]      75.85720974 [kJ/mol]
      Exch-Ind22                    3.12806901 [mEh]       1.96289294 [kcal/mol]       8.21274406 [kJ/mol]
      delta HF,r (2)              -17.27812999 [mEh]     -10.84219026 [kcal/mol]     -45.36372404 [kJ/mol]

    Dispersion                    -22.86380066 [mEh]     -14.34725152 [kcal/mol]     -60.02890036 [kJ/mol]
      Disp20                      -26.85200371 [mEh]     -16.84988672 [kcal/mol]     -70.49992602 [kJ/mol]
      Disp21                        2.40006667 [mEh]       1.50606457 [kcal/mol]       6.30137418 [kJ/mol]
      Disp22 (SDQ)                  0.07532015 [mEh]       0.04726411 [kcal/mol]       0.19775302 [kJ/mol]
      Disp22 (T)                   -3.98362384 [mEh]      -2.49976170 [kcal/mol]     -10.45900295 [kJ/mol]
      Est. Disp22 (T)              -4.52871776 [mEh]      -2.84181330 [kcal/mol]     -11.89014684 [kJ/mol]
      Exch-Disp20                   6.04153399 [mEh]       3.79111981 [kcal/mol]      15.86204529 [kJ/mol]

  Total HF                         -7.82759554 [mEh]      -4.91189036 [kcal/mol]     -20.55134925 [kJ/mol]
  Total SAPT0                     -28.63806526 [mEh]     -17.97065726 [kcal/mol]     -75.18922998 [kJ/mol]
  Total SAPT2                     -22.35991857 [mEh]     -14.03106073 [kcal/mol]     -58.70595811 [kJ/mol]
  Total SAPT2+                    -24.41324950 [mEh]     -15.31954535 [kcal/mol]     -64.09697774 [kJ/mol]

  Special recipe for scaled SAPT0 (see Manual):
    Electrostatics sSAPT0         -71.30426489 [mEh]     -44.74410174 [kcal/mol]    -187.20932167 [kJ/mol]
    Exchange sSAPT0               101.40293268 [mEh]      63.63130092 [kcal/mol]     266.23336307 [kJ/mol]
    Induction sSAPT0              -34.98278814 [mEh]     -21.95203098 [kcal/mol]     -91.84729760 [kJ/mol]
    Dispersion sSAPT0             -20.19497731 [mEh]     -12.67253959 [kcal/mol]     -53.02190562 [kJ/mol]
  Total sSAPT0                    -25.07909766 [mEh]     -15.73737137 [kcal/mol]     -65.84516182 [kJ/mol]
  --------------------------------------------------------------------------------------------------------

*** tstop() called on node54.bme.utexas.edu at Mon Sep  9 16:47:05 2019
Module time:
	user time   =    2949.40 seconds =      49.16 minutes
	system time =      57.70 seconds =       0.96 minutes
	total time  =        818 seconds =      13.63 minutes
Total time:
	user time   =    3111.66 seconds =      51.86 minutes
	system time =      60.65 seconds =       1.01 minutes
	total time  =        863 seconds =      14.38 minutes

    Psi4 stopped on: Monday, 09 September 2019 04:47PM
    Psi4 wall time for execution: 0:14:23.23

*** Psi4 exiting successfully. Buy a developer a beer!
