
    -----------------------------------------------------------------------
          Psi4: An Open-Source Ab Initio Electronic Structure Package
                               Psi4 1.3.2 release

                         Git: Rev {HEAD} ecbda83 


    R. M. Parrish, L. A. Burns, D. G. A. Smith, A. C. Simmonett,
    A. E. DePrince III, E. G. Hohenstein, U. Bozkaya, A. Yu. Sokolov,
    R. Di Remigio, R. M. Richard, J. F. Gonthier, A. M. James,
    H. R. McAlexander, A. Kumar, M. Saitow, X. Wang, B. P. Pritchard,
    P. Verma, H. F. Schaefer III, K. Patkowski, R. A. King, E. F. Valeev,
    F. A. Evangelista, J. M. Turney, T. D. Crawford, and C. D. Sherrill,
    J. Chem. Theory Comput. 13(7) pp 3185--3197 (2017).
    (doi: 10.1021/acs.jctc.7b00174)


                         Additional Contributions by
    P. Kraus, H. Kruse, M. H. Lechner, M. C. Schieber, R. A. Shaw,
    A. Alenaizan, R. Galvelis, Z. L. Glick, S. Lehtola, and J. P. Misiewicz

    -----------------------------------------------------------------------


    Psi4 started on: Tuesday, 10 September 2019 12:35PM

    Process ID: 51513
    Host:       node51.bme.utexas.edu
    PSIDATADIR: /home/xy3866/psi4conda/share/psi4
    Memory:     500.0 MiB
    Threads:    4
    
  ==> Input File <==

--------------------------------------------------------------------------
#psi4
#
memory 32 gb

molecule  {
0 1
  C        2.0083120    -0.3372920     0.0000040
  H        3.1030340    -0.4288200    -0.0000030
  O        1.2864570    -1.3299810     0.0000000
  N        1.5810970     0.9343630     0.0000010
  H        0.5827550     1.1459700     0.0000010
  H        1.9654126     1.7182408    -0.0000031
--
0 1
  C       -2.2950674     0.3768538     0.0000009
  H       -3.3897894     0.4683818    -0.0000010
  O       -1.5732124     1.3695428    -0.0000001
  N       -1.8678524    -0.8948012    -0.0000001
  H       -0.8695104    -1.1064082    -0.0000001
  H       -2.5389234    -1.6391172    -0.0000010
units angstrom
no_reorient  #important for SAPT in psi4, default
symmetry c1  #important for SAPT in psi4, default
}

set {
basis aug-cc-pVTZ
scf_type DF
freeze_core True
}
energy('sapt2+')
--------------------------------------------------------------------------

  Memory set to  29.802 GiB by Python driver.

  //>>>>>>>>>>>>>>>>>>>>>>>>>>>>>>>>>>>//
  //              Dimer HF             //
  //<<<<<<<<<<<<<<<<<<<<<<<<<<<<<<<<<<<//


*** tstart() called on node51.bme.utexas.edu
*** at Tue Sep 10 12:35:42 2019

   => Loading Basis Set <=

    Name: AUG-CC-PVTZ
    Role: ORBITAL
    Keyword: BASIS
    atoms 1, 7             entry C          line   235 file /home/xy3866/psi4conda/share/psi4/basis/aug-cc-pvtz.gbs 
    atoms 2, 5-6, 8, 11-12 entry H          line    36 file /home/xy3866/psi4conda/share/psi4/basis/aug-cc-pvtz.gbs 
    atoms 3, 9             entry O          line   327 file /home/xy3866/psi4conda/share/psi4/basis/aug-cc-pvtz.gbs 
    atoms 4, 10            entry N          line   281 file /home/xy3866/psi4conda/share/psi4/basis/aug-cc-pvtz.gbs 


         ---------------------------------------------------------
                                   SCF
               by Justin Turney, Rob Parrish, Andy Simmonett
                          and Daniel G. A. Smith
                              RHF Reference
                        4 Threads,  30517 MiB Core
         ---------------------------------------------------------

  ==> Geometry <==

    Molecular point group: c1
    Full point group: C1

    Geometry (in Angstrom), charge = 0, multiplicity = 1:

       Center              X                  Y                   Z               Mass       
    ------------   -----------------  -----------------  -----------------  -----------------
         C            2.154899272128    -0.357515704044     0.000003305365    12.000000000000
         H            3.249621272128    -0.449043704044    -0.000003694635     1.007825032230
         O            1.433044272128    -1.350204704044    -0.000000694635    15.994914619570
         N            1.727684272128     0.914139295956     0.000000305365    14.003074004430
         H            0.729342272128     1.125746295956     0.000000305365     1.007825032230
         H            2.111999872128     1.698017095956    -0.000003794635     1.007825032230
         C           -2.148480127872     0.356630095956     0.000000205365    12.000000000000
         H           -3.243202127872     0.448158095956    -0.000001694635     1.007825032230
         O           -1.426625127872     1.349319095956    -0.000000794635    15.994914619570
         N           -1.721265127872    -0.915024904044    -0.000000794635    14.003074004430
         H           -0.722923127872    -1.126631904044    -0.000000794635     1.007825032230
         H           -2.392336127872    -1.659340904044    -0.000001694635     1.007825032230

  Running in c1 symmetry.

  Rotational constants: A =      0.18925  B =      0.05682  C =      0.04370 [cm^-1]
  Rotational constants: A =   5673.51622  B =   1703.31112  C =   1310.01619 [MHz]
  Nuclear repulsion =  224.308566259646739

  Charge       = 0
  Multiplicity = 1
  Electrons    = 48
  Nalpha       = 24
  Nbeta        = 24

  ==> Algorithm <==

  SCF Algorithm Type is DF.
  DIIS enabled.
  MOM disabled.
  Fractional occupation disabled.
  Guess Type is SAD.
  Energy threshold   = 1.00e-08
  Density threshold  = 1.00e-08
  Integral threshold = 0.00e+00

  ==> Primary Basis <==

  Basis Set: AUG-CC-PVTZ
    Blend: AUG-CC-PVTZ
    Number of shells: 138
    Number of basis function: 414
    Number of Cartesian functions: 480
    Spherical Harmonics?: true
    Max angular momentum: 3

   => Loading Basis Set <=

    Name: (AUG-CC-PVTZ AUX)
    Role: JKFIT
    Keyword: DF_BASIS_SCF
    atoms 1, 7             entry C          line   162 file /home/xy3866/psi4conda/share/psi4/basis/aug-cc-pvtz-jkfit.gbs 
    atoms 2, 5-6, 8, 11-12 entry H          line    70 file /home/xy3866/psi4conda/share/psi4/basis/aug-cc-pvtz-jkfit.gbs 
    atoms 3, 9             entry O          line   286 file /home/xy3866/psi4conda/share/psi4/basis/aug-cc-pvtz-jkfit.gbs 
    atoms 4, 10            entry N          line   224 file /home/xy3866/psi4conda/share/psi4/basis/aug-cc-pvtz-jkfit.gbs 

  ==> Pre-Iterations <==

   -------------------------------------------------------
    Irrep   Nso     Nmo     Nalpha   Nbeta   Ndocc  Nsocc
   -------------------------------------------------------
     A        414     414       0       0       0       0
   -------------------------------------------------------
    Total     414     414      24      24      24       0
   -------------------------------------------------------

  ==> Integral Setup <==

  ==> DiskDFJK: Density-Fitted J/K Matrices <==

    J tasked:                  Yes
    K tasked:                  Yes
    wK tasked:                  No
    OpenMP threads:              4
    Integrals threads:           4
    Memory [MiB]:            22888
    Algorithm:                Core
    Integral Cache:           SAVE
    Schwarz Cutoff:          1E-12
    Fitting Condition:       1E-10

   => Auxiliary Basis Set <=

  Basis Set: (AUG-CC-PVTZ AUX)
    Blend: AUG-CC-PVTZ-JKFIT
    Number of shells: 264
    Number of basis function: 900
    Number of Cartesian functions: 1116
    Spherical Harmonics?: true
    Max angular momentum: 4

  Minimum eigenvalue in the overlap matrix is 3.2002058375E-05.
  Using Symmetric Orthogonalization.

  SCF Guess: Superposition of Atomic Densities via on-the-fly atomic UHF.

  ==> Iterations <==

                           Total Energy        Delta E     RMS |[F,P]|

   @DF-RHF iter SAD:  -336.56725277193533   -3.36567e+02   0.00000e+00 
   @DF-RHF iter   1:  -337.77627968032357   -1.20903e+00   1.78081e-03 DIIS
   @DF-RHF iter   2:  -337.92755858085985   -1.51279e-01   1.11586e-03 DIIS
   @DF-RHF iter   3:  -337.99653395443920   -6.89754e-02   1.69039e-04 DIIS
   @DF-RHF iter   4:  -337.99896412301587   -2.43017e-03   7.22508e-05 DIIS
   @DF-RHF iter   5:  -337.99945103205772   -4.86909e-04   1.36224e-05 DIIS
   @DF-RHF iter   6:  -337.99949150385061   -4.04718e-05   6.24138e-06 DIIS
   @DF-RHF iter   7:  -337.99950008863470   -8.58478e-06   2.47376e-06 DIIS
   @DF-RHF iter   8:  -337.99950180305240   -1.71442e-06   8.27017e-07 DIIS
   @DF-RHF iter   9:  -337.99950197637617   -1.73324e-07   3.07377e-07 DIIS
   @DF-RHF iter  10:  -337.99950199251236   -1.61362e-08   1.37176e-07 DIIS
   @DF-RHF iter  11:  -337.99950199556042   -3.04806e-09   3.96719e-08 DIIS
   @DF-RHF iter  12:  -337.99950199581099   -2.50566e-10   1.21799e-08 DIIS
   @DF-RHF iter  13:  -337.99950199583020   -1.92131e-11   2.99069e-09 DIIS
  Energy and wave function converged.


  ==> Post-Iterations <==

    Orbital Energies [Eh]
    ---------------------

    Doubly Occupied:                                                      

       1A    -20.533298     2A    -20.529579     3A    -15.587935  
       4A    -15.573295     5A    -11.363837     6A    -11.356815  
       7A     -1.384712     8A     -1.380695     9A     -1.237090  
      10A     -1.217787    11A     -0.883376    12A     -0.848115  
      13A     -0.765955    14A     -0.747022    15A     -0.688363  
      16A     -0.656164    17A     -0.613042    18A     -0.598076  
      19A     -0.574213    20A     -0.569328    21A     -0.451217  
      22A     -0.434003    23A     -0.423014    24A     -0.416709  

    Virtual:                                                              

      25A      0.026920    26A      0.030530    27A      0.043013  
      28A      0.049179    29A      0.062217    30A      0.075924  
      31A      0.086420    32A      0.088112    33A      0.099060  
      34A      0.108213    35A      0.130568    36A      0.133915  
      37A      0.136032    38A      0.136097    39A      0.137598  
      40A      0.145606    41A      0.150874    42A      0.159700  
      43A      0.177813    44A      0.180820    45A      0.187494  
      46A      0.203965    47A      0.219864    48A      0.226355  
      49A      0.231148    50A      0.252397    51A      0.254875  
      52A      0.258409    53A      0.266301    54A      0.267950  
      55A      0.273584    56A      0.289524    57A      0.296108  
      58A      0.296716    59A      0.310465    60A      0.316128  
      61A      0.316793    62A      0.334218    63A      0.338441  
      64A      0.339438    65A      0.347871    66A      0.363998  
      67A      0.365101    68A      0.377873    69A      0.392788  
      70A      0.396264    71A      0.403498    72A      0.404212  
      73A      0.408295    74A      0.425560    75A      0.428191  
      76A      0.434030    77A      0.439326    78A      0.441377  
      79A      0.474942    80A      0.482508    81A      0.504201  
      82A      0.510347    83A      0.524915    84A      0.533932  
      85A      0.535952    86A      0.546064    87A      0.555500  
      88A      0.566745    89A      0.571941    90A      0.583078  
      91A      0.589109    92A      0.596156    93A      0.606866  
      94A      0.621035    95A      0.632770    96A      0.642769  
      97A      0.657380    98A      0.679450    99A      0.680426  
     100A      0.699886   101A      0.710972   102A      0.717448  
     103A      0.722779   104A      0.733394   105A      0.736194  
     106A      0.774239   107A      0.783246   108A      0.799271  
     109A      0.822077   110A      0.829818   111A      0.838584  
     112A      0.847088   113A      0.862853   114A      0.871778  
     115A      0.874104   116A      0.882920   117A      0.883501  
     118A      0.905936   119A      0.910410   120A      0.912800  
     121A      0.921036   122A      0.921361   123A      0.923877  
     124A      0.943116   125A      0.960014   126A      0.962900  
     127A      0.968467   128A      0.970276   129A      0.986640  
     130A      0.991776   131A      0.995248   132A      1.029265  
     133A      1.035091   134A      1.039695   135A      1.047497  
     136A      1.068440   137A      1.068647   138A      1.086321  
     139A      1.093113   140A      1.094245   141A      1.103596  
     142A      1.105424   143A      1.116351   144A      1.122772  
     145A      1.128847   146A      1.141381   147A      1.152067  
     148A      1.167469   149A      1.185199   150A      1.189441  
     151A      1.201901   152A      1.227307   153A      1.242618  
     154A      1.248823   155A      1.251839   156A      1.263158  
     157A      1.267216   158A      1.276647   159A      1.293653  
     160A      1.304630   161A      1.314515   162A      1.339524  
     163A      1.340904   164A      1.355023   165A      1.361651  
     166A      1.386967   167A      1.397343   168A      1.401038  
     169A      1.405962   170A      1.428075   171A      1.432984  
     172A      1.446546   173A      1.457511   174A      1.465312  
     175A      1.474693   176A      1.507247   177A      1.507731  
     178A      1.521589   179A      1.560764   180A      1.571738  
     181A      1.578962   182A      1.589500   183A      1.603755  
     184A      1.615770   185A      1.622296   186A      1.644716  
     187A      1.674295   188A      1.703842   189A      1.715527  
     190A      1.722060   191A      1.741947   192A      1.749069  
     193A      1.773586   194A      1.788771   195A      1.817603  
     196A      1.855757   197A      1.876464   198A      1.896241  
     199A      1.932458   200A      1.974817   201A      1.988926  
     202A      2.000176   203A      2.013518   204A      2.030615  
     205A      2.039111   206A      2.063081   207A      2.072225  
     208A      2.104437   209A      2.107299   210A      2.121068  
     211A      2.148144   212A      2.149127   213A      2.169436  
     214A      2.205840   215A      2.209447   216A      2.217596  
     217A      2.243054   218A      2.262992   219A      2.303940  
     220A      2.349349   221A      2.368401   222A      2.381644  
     223A      2.410928   224A      2.414027   225A      2.417377  
     226A      2.420328   227A      2.435087   228A      2.481203  
     229A      2.490936   230A      2.522497   231A      2.527372  
     232A      2.529449   233A      2.539347   234A      2.558212  
     235A      2.561446   236A      2.595568   237A      2.628320  
     238A      2.638291   239A      2.670314   240A      2.676311  
     241A      2.690030   242A      2.690364   243A      2.714892  
     244A      2.734007   245A      2.736661   246A      2.744297  
     247A      2.785199   248A      2.814125   249A      2.823451  
     250A      2.825088   251A      2.881868   252A      2.906394  
     253A      2.927871   254A      2.933330   255A      2.950818  
     256A      2.987380   257A      3.068824   258A      3.072032  
     259A      3.114413   260A      3.180519   261A      3.180812  
     262A      3.184379   263A      3.192346   264A      3.222023  
     265A      3.367609   266A      3.374403   267A      3.383302  
     268A      3.412845   269A      3.436253   270A      3.516896  
     271A      3.540536   272A      3.552632   273A      3.577718  
     274A      3.624549   275A      3.642102   276A      3.706207  
     277A      3.708552   278A      3.749054   279A      3.764733  
     280A      3.805684   281A      3.808717   282A      3.852890  
     283A      3.914728   284A      3.925240   285A      4.021179  
     286A      4.040986   287A      4.063907   288A      4.066806  
     289A      4.087507   290A      4.087976   291A      4.107963  
     292A      4.136420   293A      4.147410   294A      4.165699  
     295A      4.183353   296A      4.188022   297A      4.198774  
     298A      4.224935   299A      4.254378   300A      4.262204  
     301A      4.319708   302A      4.339449   303A      4.339867  
     304A      4.377608   305A      4.385866   306A      4.403117  
     307A      4.424581   308A      4.426326   309A      4.452140  
     310A      4.478316   311A      4.480275   312A      4.503003  
     313A      4.517983   314A      4.558671   315A      4.601764  
     316A      4.646958   317A      4.677291   318A      4.692557  
     319A      4.707584   320A      4.736555   321A      4.763784  
     322A      4.794425   323A      4.825877   324A      4.840030  
     325A      4.867114   326A      4.900956   327A      4.917166  
     328A      4.919959   329A      4.922143   330A      4.939214  
     331A      4.956180   332A      5.069618   333A      5.080467  
     334A      5.091968   335A      5.100629   336A      5.159478  
     337A      5.169538   338A      5.199044   339A      5.222781  
     340A      5.227625   341A      5.250721   342A      5.253714  
     343A      5.289253   344A      5.311217   345A      5.366011  
     346A      5.425009   347A      5.463443   348A      5.505423  
     349A      5.526127   350A      5.549956   351A      5.559413  
     352A      5.595208   353A      5.646856   354A      5.654806  
     355A      5.659842   356A      5.719260   357A      5.719623  
     358A      5.778696   359A      5.821324   360A      5.858364  
     361A      5.859472   362A      5.867313   363A      6.055004  
     364A      6.077433   365A      6.083047   366A      6.126558  
     367A      6.186441   368A      6.325763   369A      6.359171  
     370A      6.388910   371A      6.472708   372A      6.532357  
     373A      6.554756   374A      6.591113   375A      6.697668  
     376A      6.755273   377A      6.783526   378A      6.792281  
     379A      6.882049   380A      6.889955   381A      6.912833  
     382A      6.990127   383A      6.994136   384A      7.043166  
     385A      7.080944   386A      7.155599   387A      7.158202  
     388A      7.174649   389A      7.197222   390A      7.287243  
     391A      7.316436   392A      7.331129   393A      7.357804  
     394A      7.372490   395A      7.389489   396A      7.476391  
     397A      7.619699   398A      7.624154   399A      7.652595  
     400A      7.677111   401A      7.781506   402A      7.844126  
     403A      7.904259   404A      7.928879   405A      7.971093  
     406A      8.002462   407A      8.075103   408A      8.407529  
     409A     15.573710   410A     15.865838   411A     17.515951  
     412A     18.089692   413A     18.717431   414A     20.178966  

    Final Occupation by Irrep:
              A 
    DOCC [    24 ]

  @DF-RHF Final Energy:  -337.99950199583020

   => Energetics <=

    Nuclear Repulsion Energy =            224.3085662596467387
    One-Electron Energy =                -906.9488611534504798
    Two-Electron Energy =                 344.6407928979734834
    Total Energy =                       -337.9995019958302009

Computation Completed


Properties will be evaluated at   0.000000,   0.000000,   0.000000 [a0]

Properties computed using the SCF density matrix

  Nuclear Dipole Moment: [e a0]
     X:    -0.2508      Y:     0.0346      Z:    -0.0000

  Electronic Dipole Moment: [e a0]
     X:     0.1744      Y:    -0.0396      Z:     0.0000

  Dipole Moment: [e a0]
     X:    -0.0764      Y:    -0.0050      Z:    -0.0000     Total:     0.0766

  Dipole Moment: [D]
     X:    -0.1942      Y:    -0.0127      Z:    -0.0000     Total:     0.1946


*** tstop() called on node51.bme.utexas.edu at Tue Sep 10 12:36:05 2019
Module time:
	user time   =      84.68 seconds =       1.41 minutes
	system time =       1.81 seconds =       0.03 minutes
	total time  =         23 seconds =       0.38 minutes
Total time:
	user time   =      84.68 seconds =       1.41 minutes
	system time =       1.81 seconds =       0.03 minutes
	total time  =         23 seconds =       0.38 minutes

  //>>>>>>>>>>>>>>>>>>>>>>>>>>>>>>>>>>>//
  //            Monomer A HF           //
  //<<<<<<<<<<<<<<<<<<<<<<<<<<<<<<<<<<<//


*** tstart() called on node51.bme.utexas.edu
*** at Tue Sep 10 12:36:05 2019

   => Loading Basis Set <=

    Name: AUG-CC-PVTZ
    Role: ORBITAL
    Keyword: BASIS
    atoms 1, 7             entry C          line   235 file /home/xy3866/psi4conda/share/psi4/basis/aug-cc-pvtz.gbs 
    atoms 2, 5-6, 8, 11-12 entry H          line    36 file /home/xy3866/psi4conda/share/psi4/basis/aug-cc-pvtz.gbs 
    atoms 3, 9             entry O          line   327 file /home/xy3866/psi4conda/share/psi4/basis/aug-cc-pvtz.gbs 
    atoms 4, 10            entry N          line   281 file /home/xy3866/psi4conda/share/psi4/basis/aug-cc-pvtz.gbs 


         ---------------------------------------------------------
                                   SCF
               by Justin Turney, Rob Parrish, Andy Simmonett
                          and Daniel G. A. Smith
                              RHF Reference
                        4 Threads,  30517 MiB Core
         ---------------------------------------------------------

  ==> Geometry <==

    Molecular point group: c1
    Full point group: C1

    Geometry (in Angstrom), charge = 0, multiplicity = 1:

       Center              X                  Y                   Z               Mass       
    ------------   -----------------  -----------------  -----------------  -----------------
         C            2.154899272128    -0.357515704044     0.000003305365    12.000000000000
         H            3.249621272128    -0.449043704044    -0.000003694635     1.007825032230
         O            1.433044272128    -1.350204704044    -0.000000694635    15.994914619570
         N            1.727684272128     0.914139295956     0.000000305365    14.003074004430
         H            0.729342272128     1.125746295956     0.000000305365     1.007825032230
         H            2.111999872128     1.698017095956    -0.000003794635     1.007825032230
      Gh(C)          -2.148480127872     0.356630095956     0.000000205365    12.000000000000
      Gh(H)          -3.243202127872     0.448158095956    -0.000001694635     1.007825032230
      Gh(O)          -1.426625127872     1.349319095956    -0.000000794635    15.994914619570
      Gh(N)          -1.721265127872    -0.915024904044    -0.000000794635    14.003074004430
      Gh(H)          -0.722923127872    -1.126631904044    -0.000000794635     1.007825032230
      Gh(H)          -2.392336127872    -1.659340904044    -0.000001694635     1.007825032230

  Running in c1 symmetry.

  Rotational constants: A =      0.18925  B =      0.05682  C =      0.04370 [cm^-1]
  Rotational constants: A =   5673.51622  B =   1703.31112  C =   1310.01619 [MHz]
  Nuclear repulsion =   71.741103946051979

  Charge       = 0
  Multiplicity = 1
  Electrons    = 24
  Nalpha       = 12
  Nbeta        = 12

  ==> Algorithm <==

  SCF Algorithm Type is DF.
  DIIS enabled.
  MOM disabled.
  Fractional occupation disabled.
  Guess Type is SAD.
  Energy threshold   = 1.00e-08
  Density threshold  = 1.00e-08
  Integral threshold = 0.00e+00

  ==> Primary Basis <==

  Basis Set: AUG-CC-PVTZ
    Blend: AUG-CC-PVTZ
    Number of shells: 138
    Number of basis function: 414
    Number of Cartesian functions: 480
    Spherical Harmonics?: true
    Max angular momentum: 3

   => Loading Basis Set <=

    Name: (AUG-CC-PVTZ AUX)
    Role: JKFIT
    Keyword: DF_BASIS_SCF
    atoms 1, 7             entry C          line   162 file /home/xy3866/psi4conda/share/psi4/basis/aug-cc-pvtz-jkfit.gbs 
    atoms 2, 5-6, 8, 11-12 entry H          line    70 file /home/xy3866/psi4conda/share/psi4/basis/aug-cc-pvtz-jkfit.gbs 
    atoms 3, 9             entry O          line   286 file /home/xy3866/psi4conda/share/psi4/basis/aug-cc-pvtz-jkfit.gbs 
    atoms 4, 10            entry N          line   224 file /home/xy3866/psi4conda/share/psi4/basis/aug-cc-pvtz-jkfit.gbs 

  ==> Pre-Iterations <==

   -------------------------------------------------------
    Irrep   Nso     Nmo     Nalpha   Nbeta   Ndocc  Nsocc
   -------------------------------------------------------
     A        414     414       0       0       0       0
   -------------------------------------------------------
    Total     414     414      12      12      12       0
   -------------------------------------------------------

  ==> Integral Setup <==

  ==> DiskDFJK: Density-Fitted J/K Matrices <==

    J tasked:                  Yes
    K tasked:                  Yes
    wK tasked:                  No
    OpenMP threads:              4
    Integrals threads:           4
    Memory [MiB]:            22888
    Algorithm:                Core
    Integral Cache:           LOAD
    Schwarz Cutoff:          1E-12
    Fitting Condition:       1E-10

   => Auxiliary Basis Set <=

  Basis Set: (AUG-CC-PVTZ AUX)
    Blend: AUG-CC-PVTZ-JKFIT
    Number of shells: 264
    Number of basis function: 900
    Number of Cartesian functions: 1116
    Spherical Harmonics?: true
    Max angular momentum: 4

  Minimum eigenvalue in the overlap matrix is 3.2002058375E-05.
  Using Symmetric Orthogonalization.

  SCF Guess: Superposition of Atomic Densities via on-the-fly atomic UHF.

  ==> Iterations <==

                           Total Energy        Delta E     RMS |[F,P]|

   @DF-RHF iter SAD:  -168.24584452384448   -1.68246e+02   0.00000e+00 
   @DF-RHF iter   1:  -168.85329157755814   -6.07447e-01   1.32290e-03 DIIS
   @DF-RHF iter   2:  -168.93507448229590   -8.17829e-02   8.66015e-04 DIIS
   @DF-RHF iter   3:  -168.97642429889532   -4.13498e-02   1.29323e-04 DIIS
   @DF-RHF iter   4:  -168.97779417139088   -1.36987e-03   5.46062e-05 DIIS
   @DF-RHF iter   5:  -168.97807972722086   -2.85556e-04   9.87049e-06 DIIS
   @DF-RHF iter   6:  -168.97810104122007   -2.13140e-05   4.32788e-06 DIIS
   @DF-RHF iter   7:  -168.97810528355771   -4.24234e-06   1.82299e-06 DIIS
   @DF-RHF iter   8:  -168.97810613157986   -8.48022e-07   5.76778e-07 DIIS
   @DF-RHF iter   9:  -168.97810621995131   -8.83715e-08   1.54433e-07 DIIS
   @DF-RHF iter  10:  -168.97810622620079   -6.24948e-09   3.98257e-08 DIIS
   @DF-RHF iter  11:  -168.97810622653253   -3.31738e-10   7.69298e-09 DIIS
  Energy and wave function converged.


  ==> Post-Iterations <==

    Orbital Energies [Eh]
    ---------------------

    Doubly Occupied:                                                      

       1A    -20.530451     2A    -15.588422     3A    -11.363421  
       4A     -1.380413     5A     -1.247421     6A     -0.890421  
       7A     -0.771994     8A     -0.671636     9A     -0.605622  
      10A     -0.574484    11A     -0.439561    12A     -0.425444  

    Virtual:                                                              

      13A      0.018239    14A      0.029755    15A      0.039551  
      16A      0.054276    17A      0.056924    18A      0.069427  
      19A      0.086302    20A      0.086601    21A      0.088211  
      22A      0.096014    23A      0.108135    24A      0.124467  
      25A      0.127556    26A      0.134352    27A      0.136612  
      28A      0.143767    29A      0.151128    30A      0.156837  
      31A      0.175909    32A      0.176094    33A      0.192559  
      34A      0.197527    35A      0.203920    36A      0.215483  
      37A      0.222199    38A      0.246782    39A      0.248952  
      40A      0.254998    41A      0.260373    42A      0.264830  
      43A      0.281867    44A      0.288605    45A      0.298356  
      46A      0.302277    47A      0.309001    48A      0.313340  
      49A      0.322304    50A      0.332892    51A      0.337998  
      52A      0.351546    53A      0.354752    54A      0.355061  
      55A      0.375149    56A      0.380077    57A      0.381182  
      58A      0.393676    59A      0.396998    60A      0.398861  
      61A      0.405382    62A      0.417181    63A      0.429822  
      64A      0.439032    65A      0.447335    66A      0.449320  
      67A      0.465799    68A      0.492292    69A      0.499009  
      70A      0.501200    71A      0.519010    72A      0.532018  
      73A      0.532387    74A      0.539774    75A      0.546192  
      76A      0.560168    77A      0.564189    78A      0.576534  
      79A      0.604654    80A      0.615147    81A      0.628169  
      82A      0.639279    83A      0.650032    84A      0.661669  
      85A      0.665961    86A      0.695809    87A      0.702943  
      88A      0.723107    89A      0.724897    90A      0.739228  
      91A      0.746885    92A      0.749901    93A      0.754644  
      94A      0.791602    95A      0.806976    96A      0.808218  
      97A      0.825175    98A      0.832437    99A      0.848442  
     100A      0.852862   101A      0.864953   102A      0.875818  
     103A      0.886849   104A      0.894679   105A      0.899026  
     106A      0.905874   107A      0.914104   108A      0.920420  
     109A      0.924043   110A      0.924879   111A      0.930984  
     112A      0.950601   113A      0.956595   114A      0.974926  
     115A      0.985212   116A      0.998993   117A      1.004706  
     118A      1.005907   119A      1.016331   120A      1.031081  
     121A      1.052831   122A      1.058234   123A      1.059517  
     124A      1.067424   125A      1.075294   126A      1.091177  
     127A      1.099927   128A      1.110234   129A      1.114169  
     130A      1.115650   131A      1.126982   132A      1.138406  
     133A      1.145391   134A      1.161030   135A      1.163240  
     136A      1.183611   137A      1.189389   138A      1.216598  
     139A      1.232367   140A      1.234761   141A      1.246264  
     142A      1.258291   143A      1.271457   144A      1.283169  
     145A      1.296028   146A      1.312384   147A      1.320097  
     148A      1.344594   149A      1.360002   150A      1.363757  
     151A      1.383241   152A      1.397124   153A      1.402543  
     154A      1.414431   155A      1.427597   156A      1.445151  
     157A      1.455679   158A      1.474151   159A      1.487369  
     160A      1.511785   161A      1.516319   162A      1.546506  
     163A      1.568606   164A      1.585328   165A      1.601384  
     166A      1.614553   167A      1.614714   168A      1.628445  
     169A      1.645193   170A      1.659247   171A      1.672766  
     172A      1.676476   173A      1.689751   174A      1.697478  
     175A      1.703212   176A      1.728328   177A      1.732248  
     178A      1.760372   179A      1.782030   180A      1.793570  
     181A      1.803462   182A      1.807864   183A      1.862600  
     184A      1.867774   185A      1.899198   186A      1.911805  
     187A      1.921899   188A      1.949236   189A      1.956281  
     190A      1.988482   191A      2.002990   192A      2.025979  
     193A      2.028555   194A      2.056101   195A      2.120341  
     196A      2.121526   197A      2.132777   198A      2.135540  
     199A      2.168501   200A      2.185265   201A      2.223817  
     202A      2.232055   203A      2.272853   204A      2.275771  
     205A      2.327552   206A      2.331936   207A      2.354124  
     208A      2.366426   209A      2.402634   210A      2.427351  
     211A      2.433156   212A      2.437307   213A      2.466905  
     214A      2.490293   215A      2.500456   216A      2.510846  
     217A      2.515225   218A      2.560120   219A      2.577105  
     220A      2.583696   221A      2.612407   222A      2.643231  
     223A      2.660270   224A      2.681036   225A      2.682826  
     226A      2.685513   227A      2.700229   228A      2.718099  
     229A      2.747317   230A      2.752360   231A      2.766614  
     232A      2.810152   233A      2.828616   234A      2.829818  
     235A      2.858793   236A      2.874948   237A      2.901897  
     238A      2.919196   239A      2.927990   240A      2.937822  
     241A      2.974915   242A      2.988308   243A      2.998675  
     244A      3.024792   245A      3.110554   246A      3.136561  
     247A      3.182482   248A      3.188152   249A      3.197909  
     250A      3.202655   251A      3.234951   252A      3.274318  
     253A      3.326214   254A      3.338284   255A      3.405027  
     256A      3.451884   257A      3.455656   258A      3.521429  
     259A      3.565843   260A      3.569088   261A      3.578897  
     262A      3.613329   263A      3.685368   264A      3.743450  
     265A      3.763735   266A      3.797071   267A      3.884428  
     268A      3.890029   269A      3.904527   270A      3.972654  
     271A      4.035521   272A      4.064917   273A      4.073475  
     274A      4.092976   275A      4.102652   276A      4.126161  
     277A      4.126507   278A      4.137140   279A      4.162760  
     280A      4.170375   281A      4.228949   282A      4.256801  
     283A      4.332627   284A      4.384422   285A      4.394862  
     286A      4.402812   287A      4.417577   288A      4.464934  
     289A      4.477384   290A      4.509131   291A      4.541916  
     292A      4.547362   293A      4.590450   294A      4.610987  
     295A      4.634541   296A      4.674412   297A      4.696861  
     298A      4.720347   299A      4.737079   300A      4.777753  
     301A      4.795077   302A      4.817732   303A      4.838056  
     304A      4.892393   305A      4.910815   306A      4.913305  
     307A      4.922672   308A      4.957437   309A      4.980510  
     310A      4.996742   311A      5.031040   312A      5.033069  
     313A      5.066940   314A      5.086423   315A      5.116151  
     316A      5.143639   317A      5.162711   318A      5.186393  
     319A      5.239666   320A      5.241291   321A      5.278701  
     322A      5.284059   323A      5.290491   324A      5.306380  
     325A      5.347681   326A      5.383610   327A      5.398444  
     328A      5.447174   329A      5.455854   330A      5.495869  
     331A      5.518133   332A      5.547241   333A      5.589143  
     334A      5.650025   335A      5.670314   336A      5.710013  
     337A      5.770207   338A      5.802977   339A      5.830875  
     340A      5.841571   341A      5.881019   342A      5.899667  
     343A      5.980994   344A      6.065749   345A      6.111643  
     346A      6.120441   347A      6.198091   348A      6.311453  
     349A      6.420382   350A      6.520081   351A      6.533161  
     352A      6.592502   353A      6.593584   354A      6.641807  
     355A      6.680727   356A      6.697071   357A      6.705682  
     358A      6.754955   359A      6.781482   360A      6.820093  
     361A      6.842777   362A      6.907869   363A      7.006862  
     364A      7.026188   365A      7.074294   366A      7.161839  
     367A      7.187845   368A      7.278421   369A      7.332344  
     370A      7.341450   371A      7.349019   372A      7.471539  
     373A      7.480043   374A      7.621923   375A      7.623918  
     376A      7.668673   377A      7.694680   378A      7.713025  
     379A      7.743722   380A      7.796592   381A      7.827615  
     382A      7.884242   383A      7.918193   384A      7.948916  
     385A      7.971753   386A      8.024284   387A      8.120829  
     388A      8.149799   389A      8.401881   390A      8.425407  
     391A      8.646889   392A      8.724818   393A      9.124882  
     394A      9.310027   395A      9.464152   396A      9.786610  
     397A      9.866246   398A     10.056401   399A     10.073200  
     400A     10.430776   401A     10.608796   402A     11.174345  
     403A     11.681597   404A     11.864855   405A     12.387216  
     406A     12.605795   407A     12.898702   408A     13.975576  
     409A     15.735852   410A     18.079609   411A     20.164816  
     412A     51.092956   413A     61.606856   414A     66.484893  

    Final Occupation by Irrep:
              A 
    DOCC [    12 ]

  @DF-RHF Final Energy:  -168.97810622653253

   => Energetics <=

    Nuclear Repulsion Energy =             71.7411039460519788
    One-Electron Energy =                -372.4598350963527764
    Two-Electron Energy =                 131.7406249237682800
    Total Energy =                       -168.9781062265325318

Computation Completed


Properties will be evaluated at   0.000000,   0.000000,   0.000000 [a0]

Properties computed using the SCF density matrix

  Nuclear Dipole Moment: [e a0]
     X:    80.4617      Y:    -7.8859      Z:     0.0000

  Electronic Dipole Moment: [e a0]
     X:   -79.9161      Y:     9.5204      Z:    -0.0000

  Dipole Moment: [e a0]
     X:     0.5456      Y:     1.6345      Z:    -0.0000     Total:     1.7231

  Dipole Moment: [D]
     X:     1.3869      Y:     4.1544      Z:    -0.0000     Total:     4.3797


*** tstop() called on node51.bme.utexas.edu at Tue Sep 10 12:36:19 2019
Module time:
	user time   =      50.51 seconds =       0.84 minutes
	system time =       1.03 seconds =       0.02 minutes
	total time  =         14 seconds =       0.23 minutes
Total time:
	user time   =     135.22 seconds =       2.25 minutes
	system time =       2.84 seconds =       0.05 minutes
	total time  =         37 seconds =       0.62 minutes

  //>>>>>>>>>>>>>>>>>>>>>>>>>>>>>>>>>>>//
  //            Monomer B HF           //
  //<<<<<<<<<<<<<<<<<<<<<<<<<<<<<<<<<<<//


*** tstart() called on node51.bme.utexas.edu
*** at Tue Sep 10 12:36:19 2019

   => Loading Basis Set <=

    Name: AUG-CC-PVTZ
    Role: ORBITAL
    Keyword: BASIS
    atoms 1, 7             entry C          line   235 file /home/xy3866/psi4conda/share/psi4/basis/aug-cc-pvtz.gbs 
    atoms 2, 5-6, 8, 11-12 entry H          line    36 file /home/xy3866/psi4conda/share/psi4/basis/aug-cc-pvtz.gbs 
    atoms 3, 9             entry O          line   327 file /home/xy3866/psi4conda/share/psi4/basis/aug-cc-pvtz.gbs 
    atoms 4, 10            entry N          line   281 file /home/xy3866/psi4conda/share/psi4/basis/aug-cc-pvtz.gbs 


         ---------------------------------------------------------
                                   SCF
               by Justin Turney, Rob Parrish, Andy Simmonett
                          and Daniel G. A. Smith
                              RHF Reference
                        4 Threads,  30517 MiB Core
         ---------------------------------------------------------

  ==> Geometry <==

    Molecular point group: c1
    Full point group: C1

    Geometry (in Angstrom), charge = 0, multiplicity = 1:

       Center              X                  Y                   Z               Mass       
    ------------   -----------------  -----------------  -----------------  -----------------
      Gh(C)           2.154899272128    -0.357515704044     0.000003305365    12.000000000000
      Gh(H)           3.249621272128    -0.449043704044    -0.000003694635     1.007825032230
      Gh(O)           1.433044272128    -1.350204704044    -0.000000694635    15.994914619570
      Gh(N)           1.727684272128     0.914139295956     0.000000305365    14.003074004430
      Gh(H)           0.729342272128     1.125746295956     0.000000305365     1.007825032230
      Gh(H)           2.111999872128     1.698017095956    -0.000003794635     1.007825032230
         C           -2.148480127872     0.356630095956     0.000000205365    12.000000000000
         H           -3.243202127872     0.448158095956    -0.000001694635     1.007825032230
         O           -1.426625127872     1.349319095956    -0.000000794635    15.994914619570
         N           -1.721265127872    -0.915024904044    -0.000000794635    14.003074004430
         H           -0.722923127872    -1.126631904044    -0.000000794635     1.007825032230
         H           -2.392336127872    -1.659340904044    -0.000001694635     1.007825032230

  Running in c1 symmetry.

  Rotational constants: A =      0.18925  B =      0.05682  C =      0.04370 [cm^-1]
  Rotational constants: A =   5673.51622  B =   1703.31112  C =   1310.01619 [MHz]
  Nuclear repulsion =   71.161114512124271

  Charge       = 0
  Multiplicity = 1
  Electrons    = 24
  Nalpha       = 12
  Nbeta        = 12

  ==> Algorithm <==

  SCF Algorithm Type is DF.
  DIIS enabled.
  MOM disabled.
  Fractional occupation disabled.
  Guess Type is SAD.
  Energy threshold   = 1.00e-08
  Density threshold  = 1.00e-08
  Integral threshold = 0.00e+00

  ==> Primary Basis <==

  Basis Set: AUG-CC-PVTZ
    Blend: AUG-CC-PVTZ
    Number of shells: 138
    Number of basis function: 414
    Number of Cartesian functions: 480
    Spherical Harmonics?: true
    Max angular momentum: 3

   => Loading Basis Set <=

    Name: (AUG-CC-PVTZ AUX)
    Role: JKFIT
    Keyword: DF_BASIS_SCF
    atoms 1, 7             entry C          line   162 file /home/xy3866/psi4conda/share/psi4/basis/aug-cc-pvtz-jkfit.gbs 
    atoms 2, 5-6, 8, 11-12 entry H          line    70 file /home/xy3866/psi4conda/share/psi4/basis/aug-cc-pvtz-jkfit.gbs 
    atoms 3, 9             entry O          line   286 file /home/xy3866/psi4conda/share/psi4/basis/aug-cc-pvtz-jkfit.gbs 
    atoms 4, 10            entry N          line   224 file /home/xy3866/psi4conda/share/psi4/basis/aug-cc-pvtz-jkfit.gbs 

  ==> Pre-Iterations <==

   -------------------------------------------------------
    Irrep   Nso     Nmo     Nalpha   Nbeta   Ndocc  Nsocc
   -------------------------------------------------------
     A        414     414       0       0       0       0
   -------------------------------------------------------
    Total     414     414      12      12      12       0
   -------------------------------------------------------

  ==> Integral Setup <==

  ==> DiskDFJK: Density-Fitted J/K Matrices <==

    J tasked:                  Yes
    K tasked:                  Yes
    wK tasked:                  No
    OpenMP threads:              4
    Integrals threads:           4
    Memory [MiB]:            22888
    Algorithm:                Core
    Integral Cache:           LOAD
    Schwarz Cutoff:          1E-12
    Fitting Condition:       1E-10

   => Auxiliary Basis Set <=

  Basis Set: (AUG-CC-PVTZ AUX)
    Blend: AUG-CC-PVTZ-JKFIT
    Number of shells: 264
    Number of basis function: 900
    Number of Cartesian functions: 1116
    Spherical Harmonics?: true
    Max angular momentum: 4

  Minimum eigenvalue in the overlap matrix is 3.2002058375E-05.
  Using Symmetric Orthogonalization.

  SCF Guess: Superposition of Atomic Densities via on-the-fly atomic UHF.

  ==> Iterations <==

                           Total Energy        Delta E     RMS |[F,P]|

   @DF-RHF iter SAD:  -168.20327145807448   -1.68203e+02   0.00000e+00 
   @DF-RHF iter   1:  -168.87961663250712   -6.76345e-01   1.29324e-03 DIIS
   @DF-RHF iter   2:  -168.95774478584156   -7.81282e-02   8.83299e-04 DIIS
   @DF-RHF iter   3:  -169.00146343707070   -4.37187e-02   1.26826e-04 DIIS
   @DF-RHF iter   4:  -169.00290351276396   -1.44008e-03   5.48061e-05 DIIS
   @DF-RHF iter   5:  -169.00320688390923   -3.03371e-04   1.09746e-05 DIIS
   @DF-RHF iter   6:  -169.00323689056390   -3.00067e-05   5.23257e-06 DIIS
   @DF-RHF iter   7:  -169.00324319927722   -6.30871e-06   2.10838e-06 DIIS
   @DF-RHF iter   8:  -169.00324430825793   -1.10898e-06   6.36740e-07 DIIS
   @DF-RHF iter   9:  -169.00324441210606   -1.03848e-07   1.75715e-07 DIIS
   @DF-RHF iter  10:  -169.00324442026584   -8.15979e-09   4.34637e-08 DIIS
   @DF-RHF iter  11:  -169.00324442067313   -4.07283e-10   7.78224e-09 DIIS
  Energy and wave function converged.


  ==> Post-Iterations <==

    Orbital Energies [Eh]
    ---------------------

    Doubly Occupied:                                                      

       1A    -20.526944     2A    -15.602099     3A    -11.356554  
       4A     -1.376938     5A     -1.227381     6A     -0.854911  
       7A     -0.756209     8A     -0.677331     9A     -0.603169  
      10A     -0.571950    11A     -0.435227    12A     -0.422136  

    Virtual:                                                              

      13A      0.018501    14A      0.028998    15A      0.039654  
      16A      0.054791    17A      0.056290    18A      0.069521  
      19A      0.085732    20A      0.086123    21A      0.089378  
      22A      0.095809    23A      0.108913    24A      0.125014  
      25A      0.128361    26A      0.133307    27A      0.136081  
      28A      0.143672    29A      0.151125    30A      0.157404  
      31A      0.174295    32A      0.177964    33A      0.192951  
      34A      0.195405    35A      0.201827    36A      0.215744  
      37A      0.223218    38A      0.246690    39A      0.248947  
      40A      0.253965    41A      0.257355    42A      0.266344  
      43A      0.277430    44A      0.288998    45A      0.298440  
      46A      0.301004    47A      0.306126    48A      0.313810  
      49A      0.323628    50A      0.330799    51A      0.346207  
      52A      0.347746    53A      0.351500    54A      0.359560  
      55A      0.374356    56A      0.380786    57A      0.381488  
      58A      0.389185    59A      0.391623    60A      0.397121  
      61A      0.405568    62A      0.419173    63A      0.425468  
      64A      0.442359    65A      0.442974    66A      0.450501  
      67A      0.462708    68A      0.488074    69A      0.492982  
      70A      0.501527    71A      0.516566    72A      0.530230  
      73A      0.531858    74A      0.549601    75A      0.556318  
      76A      0.560204    77A      0.570952    78A      0.579579  
      79A      0.609511    80A      0.619725    81A      0.628635  
      82A      0.638926    83A      0.647234    84A      0.649760  
      85A      0.656346    86A      0.690597    87A      0.700958  
      88A      0.720455    89A      0.726806    90A      0.738448  
      91A      0.747632    92A      0.748042    93A      0.762146  
      94A      0.788990    95A      0.806432    96A      0.809821  
      97A      0.817807    98A      0.833389    99A      0.850640  
     100A      0.859685   101A      0.867791   102A      0.874183  
     103A      0.874868   104A      0.891922   105A      0.895458  
     106A      0.897045   107A      0.915072   108A      0.915204  
     109A      0.928913   110A      0.929900   111A      0.931443  
     112A      0.939868   113A      0.953966   114A      0.973117  
     115A      0.978542   116A      0.996384   117A      1.000762  
     118A      1.008263   119A      1.013595   120A      1.026034  
     121A      1.037921   122A      1.050548   123A      1.057685  
     124A      1.061205   125A      1.072849   126A      1.086261  
     127A      1.090980   128A      1.098807   129A      1.115779  
     130A      1.122019   131A      1.135230   132A      1.142743  
     133A      1.157756   134A      1.160127   135A      1.164150  
     136A      1.180772   137A      1.201589   138A      1.211361  
     139A      1.246798   140A      1.246939   141A      1.255240  
     142A      1.267192   143A      1.279822   144A      1.288583  
     145A      1.307082   146A      1.311173   147A      1.314257  
     148A      1.347898   149A      1.367093   150A      1.368512  
     151A      1.378623   152A      1.386370   153A      1.396987  
     154A      1.404476   155A      1.420460   156A      1.444728  
     157A      1.450852   158A      1.459790   159A      1.490606  
     160A      1.504382   161A      1.505935   162A      1.552022  
     163A      1.566377   164A      1.573113   165A      1.591069  
     166A      1.604879   167A      1.619432   168A      1.633144  
     169A      1.651970   170A      1.654141   171A      1.669723  
     172A      1.684061   173A      1.688726   174A      1.701521  
     175A      1.702408   176A      1.732955   177A      1.734595  
     178A      1.770265   179A      1.772697   180A      1.795061  
     181A      1.806993   182A      1.820618   183A      1.851812  
     184A      1.856338   185A      1.876931   186A      1.917143  
     187A      1.930377   188A      1.962641   189A      1.965382  
     190A      1.996705   191A      2.015715   192A      2.025912  
     193A      2.033282   194A      2.065911   195A      2.076553  
     196A      2.099917   197A      2.114209   198A      2.124476  
     199A      2.158088   200A      2.191769   201A      2.236767  
     202A      2.237200   203A      2.252195   204A      2.263869  
     205A      2.301836   206A      2.326176   207A      2.360934  
     208A      2.372655   209A      2.384814   210A      2.423382  
     211A      2.437411   212A      2.451502   213A      2.476321  
     214A      2.491442   215A      2.496798   216A      2.518063  
     217A      2.518603   218A      2.556050   219A      2.584529  
     220A      2.594665   221A      2.623074   222A      2.630267  
     223A      2.656036   224A      2.661303   225A      2.669760  
     226A      2.712044   227A      2.724926   228A      2.732027  
     229A      2.748995   230A      2.767854   231A      2.778866  
     232A      2.785076   233A      2.810811   234A      2.825967  
     235A      2.882106   236A      2.912721   237A      2.925852  
     238A      2.948950   239A      2.959709   240A      2.976894  
     241A      2.988918   242A      3.024169   243A      3.025242  
     244A      3.065204   245A      3.099240   246A      3.114584  
     247A      3.156937   248A      3.186604   249A      3.225079  
     250A      3.229202   251A      3.229372   252A      3.265286  
     253A      3.276490   254A      3.367457   255A      3.400185  
     256A      3.408841   257A      3.449671   258A      3.495210  
     259A      3.568434   260A      3.577904   261A      3.595442  
     262A      3.595504   263A      3.698572   264A      3.701055  
     265A      3.728204   266A      3.785306   267A      3.817833  
     268A      3.817994   269A      3.874886   270A      3.998045  
     271A      4.041560   272A      4.054995   273A      4.068913  
     274A      4.073296   275A      4.094265   276A      4.097176  
     277A      4.136430   278A      4.157743   279A      4.178854  
     280A      4.182722   281A      4.209307   282A      4.215044  
     283A      4.301553   284A      4.328577   285A      4.369042  
     286A      4.404329   287A      4.414098   288A      4.448937  
     289A      4.468587   290A      4.496840   291A      4.501639  
     292A      4.521044   293A      4.631134   294A      4.656051  
     295A      4.679073   296A      4.685572   297A      4.693969  
     298A      4.719874   299A      4.742548   300A      4.798713  
     301A      4.804042   302A      4.818407   303A      4.840582  
     304A      4.872691   305A      4.888019   306A      4.908385  
     307A      4.925271   308A      4.932864   309A      4.939810  
     310A      4.978149   311A      5.007877   312A      5.015548  
     313A      5.045269   314A      5.069412   315A      5.085317  
     316A      5.129688   317A      5.172934   318A      5.198055  
     319A      5.198943   320A      5.219437   321A      5.235368  
     322A      5.267075   323A      5.291941   324A      5.298449  
     325A      5.351811   326A      5.394331   327A      5.412510  
     328A      5.413639   329A      5.421377   330A      5.540123  
     331A      5.548258   332A      5.616308   333A      5.619054  
     334A      5.654762   335A      5.685687   336A      5.697599  
     337A      5.786021   338A      5.789384   339A      5.812349  
     340A      5.844367   341A      5.915643   342A      5.954615  
     343A      6.051811   344A      6.061594   345A      6.078167  
     346A      6.170701   347A      6.226270   348A      6.317576  
     349A      6.337704   350A      6.361672   351A      6.426563  
     352A      6.527291   353A      6.554507   354A      6.590589  
     355A      6.619707   356A      6.655803   357A      6.757587  
     358A      6.801231   359A      6.802361   360A      6.873950  
     361A      6.886566   362A      6.921386   363A      6.996612  
     364A      7.006653   365A      7.065297   366A      7.164568  
     367A      7.168873   368A      7.176947   369A      7.325905  
     370A      7.347857   371A      7.368014   372A      7.436755  
     373A      7.572682   374A      7.626516   375A      7.641192  
     376A      7.642060   377A      7.681695   378A      7.704163  
     379A      7.729409   380A      7.782974   381A      7.915407  
     382A      7.915457   383A      7.929566   384A      7.968660  
     385A      8.023834   386A      8.093836   387A      8.097045  
     388A      8.151213   389A      8.179537   390A      8.461347  
     391A      8.697301   392A      8.888614   393A      9.271616  
     394A      9.564072   395A      9.775668   396A      9.871643  
     397A      9.914641   398A     10.073108   399A     10.078993  
     400A     10.426144   401A     10.736010   402A     11.461748  
     403A     11.856500   404A     11.932626   405A     12.457307  
     406A     12.615079   407A     13.761753   408A     13.992465  
     409A     15.769156   410A     17.500977   411A     18.702759  
     412A     51.930423   413A     64.281215   414A     66.389733  

    Final Occupation by Irrep:
              A 
    DOCC [    12 ]

  @DF-RHF Final Energy:  -169.00324442067313

   => Energetics <=

    Nuclear Repulsion Energy =             71.1611145121242714
    One-Electron Energy =                -371.5070191508005450
    Two-Electron Energy =                 131.3426602180031750
    Total Energy =                       -169.0032444206731270

Computation Completed


Properties will be evaluated at   0.000000,   0.000000,   0.000000 [a0]

Properties computed using the SCF density matrix

  Nuclear Dipole Moment: [e a0]
     X:   -80.7125      Y:     7.9205      Z:    -0.0000

  Electronic Dipole Moment: [e a0]
     X:    80.0900      Y:    -9.5626      Z:     0.0000

  Dipole Moment: [e a0]
     X:    -0.6224      Y:    -1.6422      Z:    -0.0000     Total:     1.7562

  Dipole Moment: [D]
     X:    -1.5821      Y:    -4.1739      Z:    -0.0000     Total:     4.4637


*** tstop() called on node51.bme.utexas.edu at Tue Sep 10 12:36:33 2019
Module time:
	user time   =      49.88 seconds =       0.83 minutes
	system time =       1.28 seconds =       0.02 minutes
	total time  =         14 seconds =       0.23 minutes
Total time:
	user time   =     185.12 seconds =       3.09 minutes
	system time =       4.12 seconds =       0.07 minutes
	total time  =         51 seconds =       0.85 minutes
  Constructing Basis Sets for SAPT...

   => Loading Basis Set <=

    Name: (AUG-CC-PVTZ AUX)
    Role: RIFIT
    Keyword: DF_BASIS_SAPT
    atoms 1, 7             entry C          line   148 file /home/xy3866/psi4conda/share/psi4/basis/aug-cc-pvtz-ri.gbs 
    atoms 2, 5-6, 8, 11-12 entry H          line    30 file /home/xy3866/psi4conda/share/psi4/basis/aug-cc-pvtz-ri.gbs 
    atoms 3, 9             entry O          line   264 file /home/xy3866/psi4conda/share/psi4/basis/aug-cc-pvtz-ri.gbs 
    atoms 4, 10            entry N          line   206 file /home/xy3866/psi4conda/share/psi4/basis/aug-cc-pvtz-ri.gbs 


  //>>>>>>>>>>>>>>>>>>>>>>>>>>>>>>>>>>>//
  //               SAPT2+              //
  //<<<<<<<<<<<<<<<<<<<<<<<<<<<<<<<<<<<//


*** tstart() called on node51.bme.utexas.edu
*** at Tue Sep 10 12:36:33 2019

        SAPT2+  
    Ed Hohenstein
     6 June 2009

      Orbital Information
  --------------------------
    NSO        =       414
    NMO        =       414
    NRI        =       912
    NOCC A     =        12
    NOCC B     =        12
    FOCC A     =         3
    FOCC B     =         3
    NVIR A     =       402
    NVIR B     =       402

    Estimated memory usage: 1737.6 MB

    Natural Orbital Cutoff:   1.000E-06
    Disp(T3) Truncation:            Yes
    CCD (vv|vv) Truncation:         Yes
    MBPT T2 Truncation:             Yes

    Monomer A: 222 virtual orbitals dropped
    Monomer B: 220 virtual orbitals dropped

    Elst10,r            =    -0.024442555073 [Eh]
    Exch10 (S^2)        =     0.012847792166 [Eh]
    Exch10              =     0.012913824842 [Eh]
    Ind20,r (A<-B)      =    -0.003799180590 [Eh]
    Ind20,r (B<-A)      =    -0.003652467996 [Eh]
    Ind20,r             =    -0.007451648586 [Eh]
    Exch-Ind20,r (A<-B) =     0.001569702953 [Eh]
    Exch-Ind20,r (B<-A) =     0.001535090484 [Eh]
    Exch-Ind20,r        =     0.003104793437 [Eh]
    Disp20              =    -0.007184549416 [Eh]
    Disp20 (NO)         =    -0.006313129176 [Eh]
    Exch-Disp20         =     0.001044313371 [Eh]
    Elst12,r            =     0.001466451969 [Eh]
    Exch11              =     0.000024822077 [Eh]
    Exch12              =     0.002539426671 [Eh]
    Ind22               =    -0.000972928147 [Eh]
    Disp21              =     0.000385653587 [Eh]
    Disp22 (SDQ)        =    -0.000101624576 [Eh]

    (i =   1 of   9)         23 seconds
    (i =   2 of   9)         46 seconds
    (i =   3 of   9)         69 seconds
    (i =   4 of   9)         92 seconds
    (i =   5 of   9)        116 seconds
    (i =   6 of   9)        139 seconds
    (i =   7 of   9)        162 seconds
    (i =   8 of   9)        186 seconds
    (i =   9 of   9)        209 seconds

    Disp220 (T)         =    -0.000619144620 [Eh]

    (i =   1 of   9)         25 seconds
    (i =   2 of   9)         50 seconds
    (i =   3 of   9)         75 seconds
    (i =   4 of   9)        100 seconds
    (i =   5 of   9)        125 seconds
    (i =   6 of   9)        149 seconds
    (i =   7 of   9)        174 seconds
    (i =   8 of   9)        199 seconds
    (i =   9 of   9)        223 seconds

    Disp202 (T)         =    -0.000626634280 [Eh]

    Disp22 (T)          =    -0.001245778900 [Eh]

    Est. Disp220 (T)    =    -0.000704607017 [Eh]
    Est. Disp202 (T)    =    -0.000713130498 [Eh]

    Est. Disp22 (T)     =    -0.001417737515 [Eh]

    SAPT Results 
  --------------------------------------------------------------------------------------------------------
    Electrostatics                -22.97610310 [mEh]     -14.41772237 [kcal/mol]     -60.32375039 [kJ/mol]
      Elst10,r                    -24.44255507 [mEh]     -15.33793487 [kcal/mol]     -64.17391950 [kJ/mol]
      Elst12,r                      1.46645197 [mEh]       0.92021250 [kcal/mol]       3.85016911 [kJ/mol]

    Exchange                       15.47807359 [mEh]       9.71263781 [kcal/mol]      40.63767661 [kJ/mol]
      Exch10                       12.91382484 [mEh]       8.10354743 [kcal/mol]      33.90524245 [kJ/mol]
      Exch10(S^2)                  12.84779217 [mEh]       8.06211130 [kcal/mol]      33.73187368 [kJ/mol]
      Exch11(S^2)                   0.02482208 [mEh]       0.01557609 [kcal/mol]       0.06517035 [kJ/mol]
      Exch12(S^2)                   2.53942667 [mEh]       1.59351429 [kcal/mol]       6.66726381 [kJ/mol]

    Induction                      -7.19016766 [mEh]      -4.51189833 [kcal/mol]     -18.87778260 [kJ/mol]
      Ind20,r                      -7.45164859 [mEh]      -4.67598008 [kcal/mol]     -19.56430067 [kJ/mol]
      Ind22                        -0.97292815 [mEh]      -0.61052163 [kcal/mol]      -2.55442250 [kJ/mol]
      Exch-Ind20,r                  3.10479344 [mEh]       1.94828730 [kcal/mol]       8.15163405 [kJ/mol]
      Exch-Ind22                    0.40537888 [mEh]       0.25437908 [kcal/mol]       1.06432209 [kJ/mol]
      delta HF,r (2)               -2.27576324 [mEh]      -1.42806300 [kcal/mol]      -5.97501557 [kJ/mol]

    Dispersion                     -7.27394455 [mEh]      -4.56446912 [kcal/mol]     -19.09773878 [kJ/mol]
      Disp20                       -7.18454942 [mEh]      -4.50837282 [kcal/mol]     -18.86303189 [kJ/mol]
      Disp21                        0.38565359 [mEh]       0.24200128 [kcal/mol]       1.01253335 [kJ/mol]
      Disp22 (SDQ)                 -0.10162458 [mEh]      -0.06377038 [kcal/mol]      -0.26681529 [kJ/mol]
      Disp22 (T)                   -1.24577890 [mEh]      -0.78173806 [kcal/mol]      -3.27079205 [kJ/mol]
      Est. Disp22 (T)              -1.41773751 [mEh]      -0.88964372 [kcal/mol]      -3.72226933 [kJ/mol]
      Exch-Disp20                   1.04431337 [mEh]       0.65531653 [kcal/mol]       2.74184438 [kJ/mol]

  Total HF                        -18.15134862 [mEh]     -11.39014322 [kcal/mol]     -47.65635925 [kJ/mol]
  Total SAPT0                     -24.29158467 [mEh]     -15.24319951 [kcal/mol]     -63.77754676 [kJ/mol]
  Total SAPT2                     -20.82843322 [mEh]     -13.07003917 [kcal/mol]     -54.68504390 [kJ/mol]
  Total SAPT2+                    -21.96214173 [mEh]     -13.78145200 [kcal/mol]     -57.66159516 [kJ/mol]

  Special recipe for scaled SAPT0 (see Manual):
    Electrostatics sSAPT0         -24.44255507 [mEh]     -15.33793487 [kcal/mol]     -64.17391950 [kJ/mol]
    Exchange sSAPT0                12.91382484 [mEh]       8.10354743 [kcal/mol]      33.90524245 [kJ/mol]
    Induction sSAPT0               -6.57449962 [mEh]      -4.12556080 [kcal/mol]     -17.26134637 [kJ/mol]
    Dispersion sSAPT0              -6.12405105 [mEh]      -3.84290005 [kcal/mol]     -16.07869381 [kJ/mol]
  Total sSAPT0                    -24.22728090 [mEh]     -15.20284829 [kcal/mol]     -63.60871723 [kJ/mol]
  --------------------------------------------------------------------------------------------------------

*** tstop() called on node51.bme.utexas.edu at Tue Sep 10 12:47:47 2019
Module time:
	user time   =    2470.25 seconds =      41.17 minutes
	system time =      81.77 seconds =       1.36 minutes
	total time  =        674 seconds =      11.23 minutes
Total time:
	user time   =    2655.66 seconds =      44.26 minutes
	system time =      85.90 seconds =       1.43 minutes
	total time  =        725 seconds =      12.08 minutes

    Psi4 stopped on: Tuesday, 10 September 2019 12:47PM
    Psi4 wall time for execution: 0:12:05.33

*** Psi4 exiting successfully. Buy a developer a beer!
