
    -----------------------------------------------------------------------
          Psi4: An Open-Source Ab Initio Electronic Structure Package
                               Psi4 1.3.2 release

                         Git: Rev {HEAD} ecbda83 


    R. M. Parrish, L. A. Burns, D. G. A. Smith, A. C. Simmonett,
    A. E. DePrince III, E. G. Hohenstein, U. Bozkaya, A. Yu. Sokolov,
    R. Di Remigio, R. M. Richard, J. F. Gonthier, A. M. James,
    H. R. McAlexander, A. Kumar, M. Saitow, X. Wang, B. P. Pritchard,
    P. Verma, H. F. Schaefer III, K. Patkowski, R. A. King, E. F. Valeev,
    F. A. Evangelista, J. M. Turney, T. D. Crawford, and C. D. Sherrill,
    J. Chem. Theory Comput. 13(7) pp 3185--3197 (2017).
    (doi: 10.1021/acs.jctc.7b00174)


                         Additional Contributions by
    P. Kraus, H. Kruse, M. H. Lechner, M. C. Schieber, R. A. Shaw,
    A. Alenaizan, R. Galvelis, Z. L. Glick, S. Lehtola, and J. P. Misiewicz

    -----------------------------------------------------------------------


    Psi4 started on: Tuesday, 10 September 2019 12:06PM

    Process ID: 48319
    Host:       node51.bme.utexas.edu
    PSIDATADIR: /home/xy3866/psi4conda/share/psi4
    Memory:     500.0 MiB
    Threads:    4
    
  ==> Input File <==

--------------------------------------------------------------------------
#psi4
#
memory 32 gb

molecule  {
0 1
  C        2.0083120    -0.3372920     0.0000040
  H        3.1030340    -0.4288200    -0.0000030
  O        1.2864570    -1.3299810     0.0000000
  N        1.5810970     0.9343630     0.0000010
  H        0.5827550     1.1459700     0.0000010
  H        2.8256788     1.5995554    -0.0000029
--
0 1
  C       -1.4348012     0.2581684     0.0000011
  H       -2.5295232     0.3496964    -0.0000009
  O       -0.7129462     1.2508574     0.0000001
  N       -1.0075862    -1.0134866     0.0000001
  H       -0.0092442    -1.2250936     0.0000001
  H       -1.6786572    -1.7578026    -0.0000009
units angstrom
no_reorient  #important for SAPT in psi4, default
symmetry c1  #important for SAPT in psi4, default
}

set {
basis aug-cc-pVTZ
scf_type DF
freeze_core True
}
energy('sapt2+')
--------------------------------------------------------------------------

  Memory set to  29.802 GiB by Python driver.

  //>>>>>>>>>>>>>>>>>>>>>>>>>>>>>>>>>>>//
  //              Dimer HF             //
  //<<<<<<<<<<<<<<<<<<<<<<<<<<<<<<<<<<<//


*** tstart() called on node51.bme.utexas.edu
*** at Tue Sep 10 12:06:50 2019

   => Loading Basis Set <=

    Name: AUG-CC-PVTZ
    Role: ORBITAL
    Keyword: BASIS
    atoms 1, 7             entry C          line   235 file /home/xy3866/psi4conda/share/psi4/basis/aug-cc-pvtz.gbs 
    atoms 2, 5-6, 8, 11-12 entry H          line    36 file /home/xy3866/psi4conda/share/psi4/basis/aug-cc-pvtz.gbs 
    atoms 3, 9             entry O          line   327 file /home/xy3866/psi4conda/share/psi4/basis/aug-cc-pvtz.gbs 
    atoms 4, 10            entry N          line   281 file /home/xy3866/psi4conda/share/psi4/basis/aug-cc-pvtz.gbs 


         ---------------------------------------------------------
                                   SCF
               by Justin Turney, Rob Parrish, Andy Simmonett
                          and Daniel G. A. Smith
                              RHF Reference
                        4 Threads,  30517 MiB Core
         ---------------------------------------------------------

  ==> Geometry <==

    Molecular point group: c1
    Full point group: C1

    Geometry (in Angstrom), charge = 0, multiplicity = 1:

       Center              X                  Y                   Z               Mass       
    ------------   -----------------  -----------------  -----------------  -----------------
         C            1.715137455744    -0.296844591913     0.000003205365    12.000000000000
         H            2.809859455744    -0.388372591913    -0.000003794635     1.007825032230
         O            0.993282455744    -1.289533591913    -0.000000794635    15.994914619570
         N            1.287922455744     0.974810408087     0.000000205365    14.003074004430
         H            0.289580455744     1.186417408087     0.000000205365     1.007825032230
         H            2.532504255744     1.640002808087    -0.000003694635     1.007825032230
         C           -1.727975744256     0.298615808087     0.000000305365    12.000000000000
         H           -2.822697744256     0.390143808087    -0.000001694635     1.007825032230
         O           -1.006120744256     1.291304808087    -0.000000694635    15.994914619570
         N           -1.300760744256    -0.973039191913    -0.000000694635    14.003074004430
         H           -0.302418744256    -1.184646191913    -0.000000694635     1.007825032230
         H           -1.971831744256    -1.717355191913    -0.000001694635     1.007825032230

  Running in c1 symmetry.

  Rotational constants: A =      0.18922  B =      0.09457  C =      0.06305 [cm^-1]
  Rotational constants: A =   5672.70436  B =   2835.02618  C =   1890.31203 [MHz]
  Nuclear repulsion =  245.379904287101482

  Charge       = 0
  Multiplicity = 1
  Electrons    = 48
  Nalpha       = 24
  Nbeta        = 24

  ==> Algorithm <==

  SCF Algorithm Type is DF.
  DIIS enabled.
  MOM disabled.
  Fractional occupation disabled.
  Guess Type is SAD.
  Energy threshold   = 1.00e-08
  Density threshold  = 1.00e-08
  Integral threshold = 0.00e+00

  ==> Primary Basis <==

  Basis Set: AUG-CC-PVTZ
    Blend: AUG-CC-PVTZ
    Number of shells: 138
    Number of basis function: 414
    Number of Cartesian functions: 480
    Spherical Harmonics?: true
    Max angular momentum: 3

   => Loading Basis Set <=

    Name: (AUG-CC-PVTZ AUX)
    Role: JKFIT
    Keyword: DF_BASIS_SCF
    atoms 1, 7             entry C          line   162 file /home/xy3866/psi4conda/share/psi4/basis/aug-cc-pvtz-jkfit.gbs 
    atoms 2, 5-6, 8, 11-12 entry H          line    70 file /home/xy3866/psi4conda/share/psi4/basis/aug-cc-pvtz-jkfit.gbs 
    atoms 3, 9             entry O          line   286 file /home/xy3866/psi4conda/share/psi4/basis/aug-cc-pvtz-jkfit.gbs 
    atoms 4, 10            entry N          line   224 file /home/xy3866/psi4conda/share/psi4/basis/aug-cc-pvtz-jkfit.gbs 

  ==> Pre-Iterations <==

   -------------------------------------------------------
    Irrep   Nso     Nmo     Nalpha   Nbeta   Ndocc  Nsocc
   -------------------------------------------------------
     A        414     414       0       0       0       0
   -------------------------------------------------------
    Total     414     414      24      24      24       0
   -------------------------------------------------------

  ==> Integral Setup <==

  ==> DiskDFJK: Density-Fitted J/K Matrices <==

    J tasked:                  Yes
    K tasked:                  Yes
    wK tasked:                  No
    OpenMP threads:              4
    Integrals threads:           4
    Memory [MiB]:            22888
    Algorithm:                Core
    Integral Cache:           SAVE
    Schwarz Cutoff:          1E-12
    Fitting Condition:       1E-10

   => Auxiliary Basis Set <=

  Basis Set: (AUG-CC-PVTZ AUX)
    Blend: AUG-CC-PVTZ-JKFIT
    Number of shells: 264
    Number of basis function: 900
    Number of Cartesian functions: 1116
    Spherical Harmonics?: true
    Max angular momentum: 4

  Minimum eigenvalue in the overlap matrix is 2.2970102120E-05.
  Using Symmetric Orthogonalization.

  SCF Guess: Superposition of Atomic Densities via on-the-fly atomic UHF.

  ==> Iterations <==

                           Total Energy        Delta E     RMS |[F,P]|

   @DF-RHF iter SAD:  -336.97533589701641   -3.36975e+02   0.00000e+00 
   @DF-RHF iter   1:  -337.64423796152550   -6.68902e-01   1.77439e-03 DIIS
   @DF-RHF iter   2:  -337.80392765843180   -1.59690e-01   1.13047e-03 DIIS
   @DF-RHF iter   3:  -337.88227066804581   -7.83430e-02   1.42808e-04 DIIS
   @DF-RHF iter   4:  -337.88495489638524   -2.68423e-03   5.52566e-05 DIIS
   @DF-RHF iter   5:  -337.88533064156985   -3.75745e-04   1.85363e-05 DIIS
   @DF-RHF iter   6:  -337.88540691107357   -7.62695e-05   8.59035e-06 DIIS
   @DF-RHF iter   7:  -337.88542441650213   -1.75054e-05   3.00465e-06 DIIS
   @DF-RHF iter   8:  -337.88542753421063   -3.11771e-06   1.26332e-06 DIIS
   @DF-RHF iter   9:  -337.88542790257344   -3.68363e-07   3.96026e-07 DIIS
   @DF-RHF iter  10:  -337.88542794387160   -4.12982e-08   1.57406e-07 DIIS
   @DF-RHF iter  11:  -337.88542794935887   -5.48727e-09   5.03036e-08 DIIS
   @DF-RHF iter  12:  -337.88542794999216   -6.33293e-10   1.89963e-08 DIIS
   @DF-RHF iter  13:  -337.88542795004690   -5.47402e-11   7.86619e-09 DIIS
  Energy and wave function converged.


  ==> Post-Iterations <==

    Orbital Energies [Eh]
    ---------------------

    Doubly Occupied:                                                      

       1A    -20.538967     2A    -20.530153     3A    -15.583005  
       4A    -15.552858     5A    -11.361191     6A    -11.353999  
       7A     -1.415468     8A     -1.397872     9A     -1.211813  
      10A     -1.175253    11A     -0.898357    12A     -0.806413  
      13A     -0.779900    14A     -0.735273    15A     -0.680791  
      16A     -0.628310    17A     -0.595921    18A     -0.590694  
      19A     -0.567705    20A     -0.547097    21A     -0.460402  
      22A     -0.426443    23A     -0.412721    24A     -0.396037  

    Virtual:                                                              

      25A      0.024271    26A      0.030247    27A      0.043684  
      28A      0.051890    29A      0.058989    30A      0.074440  
      31A      0.082060    32A      0.089160    33A      0.099599  
      34A      0.104580    35A      0.117391    36A      0.131142  
      37A      0.139132    38A      0.141500    39A      0.142455  
      40A      0.149986    41A      0.153976    42A      0.161423  
      43A      0.177136    44A      0.183876    45A      0.193394  
      46A      0.198004    47A      0.219682    48A      0.224322  
      49A      0.225706    50A      0.256808    51A      0.257901  
      52A      0.261125    53A      0.267477    54A      0.275126  
      55A      0.286481    56A      0.289475    57A      0.297690  
      58A      0.301004    59A      0.305079    60A      0.325809  
      61A      0.333200    62A      0.337251    63A      0.339801  
      64A      0.345427    65A      0.348662    66A      0.367104  
      67A      0.382492    68A      0.397182    69A      0.401492  
      70A      0.407824    71A      0.418050    72A      0.422499  
      73A      0.423774    74A      0.429850    75A      0.446360  
      76A      0.465688    77A      0.470217    78A      0.482058  
      79A      0.495158    80A      0.500357    81A      0.522889  
      82A      0.524306    83A      0.544830    84A      0.545721  
      85A      0.559579    86A      0.566045    87A      0.578327  
      88A      0.579745    89A      0.584727    90A      0.601003  
      91A      0.605830    92A      0.632379    93A      0.635569  
      94A      0.653208    95A      0.656420    96A      0.658223  
      97A      0.671397    98A      0.676020    99A      0.687905  
     100A      0.714179   101A      0.725078   102A      0.729966  
     103A      0.748351   104A      0.753064   105A      0.775931  
     106A      0.782397   107A      0.809759   108A      0.817625  
     109A      0.821955   110A      0.824284   111A      0.846504  
     112A      0.852339   113A      0.859648   114A      0.866844  
     115A      0.869573   116A      0.888002   117A      0.908075  
     118A      0.913352   119A      0.919039   120A      0.934810  
     121A      0.938887   122A      0.941782   123A      0.954033  
     124A      0.956371   125A      0.977514   126A      0.977597  
     127A      0.989331   128A      1.000660   129A      1.007741  
     130A      1.030665   131A      1.031437   132A      1.038312  
     133A      1.039824   134A      1.043749   135A      1.064917  
     136A      1.075503   137A      1.085002   138A      1.093819  
     139A      1.114990   140A      1.120654   141A      1.134283  
     142A      1.137622   143A      1.154665   144A      1.170019  
     145A      1.172287   146A      1.177322   147A      1.189693  
     148A      1.215027   149A      1.228813   150A      1.229027  
     151A      1.244086   152A      1.265993   153A      1.268043  
     154A      1.293030   155A      1.300937   156A      1.305073  
     157A      1.321336   158A      1.325781   159A      1.361298  
     160A      1.379234   161A      1.386892   162A      1.399463  
     163A      1.400723   164A      1.419215   165A      1.441627  
     166A      1.443114   167A      1.452365   168A      1.460279  
     169A      1.469523   170A      1.479036   171A      1.496187  
     172A      1.507646   173A      1.530143   174A      1.540727  
     175A      1.546557   176A      1.583833   177A      1.585668  
     178A      1.590161   179A      1.617103   180A      1.636925  
     181A      1.653273   182A      1.665817   183A      1.683693  
     184A      1.690232   185A      1.711105   186A      1.733810  
     187A      1.743819   188A      1.746588   189A      1.748003  
     190A      1.765728   191A      1.768676   192A      1.788473  
     193A      1.822914   194A      1.863116   195A      1.876328  
     196A      1.895957   197A      1.922198   198A      1.948487  
     199A      1.959594   200A      1.978303   201A      1.989089  
     202A      2.039997   203A      2.049021   204A      2.063204  
     205A      2.066320   206A      2.074251   207A      2.126270  
     208A      2.138680   209A      2.153233   210A      2.177832  
     211A      2.199986   212A      2.242305   213A      2.267503  
     214A      2.279712   215A      2.292165   216A      2.294771  
     217A      2.334025   218A      2.355371   219A      2.370126  
     220A      2.379624   221A      2.426657   222A      2.435115  
     223A      2.444104   224A      2.465457   225A      2.474298  
     226A      2.505383   227A      2.512694   228A      2.514219  
     229A      2.569998   230A      2.590503   231A      2.590847  
     232A      2.608601   233A      2.629972   234A      2.644152  
     235A      2.650479   236A      2.676163   237A      2.678503  
     238A      2.692909   239A      2.706816   240A      2.724989  
     241A      2.748107   242A      2.786435   243A      2.788773  
     244A      2.824099   245A      2.833277   246A      2.846605  
     247A      2.882777   248A      2.884147   249A      2.907603  
     250A      2.938156   251A      3.020121   252A      3.061717  
     253A      3.071032   254A      3.107074   255A      3.144217  
     256A      3.154274   257A      3.173132   258A      3.202809  
     259A      3.223322   260A      3.257280   261A      3.320471  
     262A      3.379624   263A      3.400550   264A      3.420579  
     265A      3.435687   266A      3.452938   267A      3.460480  
     268A      3.487957   269A      3.540012   270A      3.594548  
     271A      3.627976   272A      3.628402   273A      3.666318  
     274A      3.677528   275A      3.699741   276A      3.704600  
     277A      3.753535   278A      3.757596   279A      3.806437  
     280A      3.847996   281A      3.869823   282A      3.912757  
     283A      3.948360   284A      4.001415   285A      4.031403  
     286A      4.044803   287A      4.081232   288A      4.098059  
     289A      4.108800   290A      4.113979   291A      4.135913  
     292A      4.187621   293A      4.203726   294A      4.216881  
     295A      4.233834   296A      4.246545   297A      4.281271  
     298A      4.288564   299A      4.305875   300A      4.323682  
     301A      4.328550   302A      4.350083   303A      4.389859  
     304A      4.400337   305A      4.407507   306A      4.425277  
     307A      4.440281   308A      4.463151   309A      4.474270  
     310A      4.490200   311A      4.502165   312A      4.543184  
     313A      4.551563   314A      4.584423   315A      4.621544  
     316A      4.645920   317A      4.717778   318A      4.769594  
     319A      4.775367   320A      4.789194   321A      4.805416  
     322A      4.811104   323A      4.856162   324A      4.884893  
     325A      4.901473   326A      4.934259   327A      4.960770  
     328A      4.962261   329A      5.000797   330A      5.027689  
     331A      5.067469   332A      5.084982   333A      5.115213  
     334A      5.122503   335A      5.149055   336A      5.159967  
     337A      5.179332   338A      5.218716   339A      5.240502  
     340A      5.271360   341A      5.301079   342A      5.313894  
     343A      5.370109   344A      5.388863   345A      5.403999  
     346A      5.421721   347A      5.440347   348A      5.497366  
     349A      5.584021   350A      5.616179   351A      5.626919  
     352A      5.691463   353A      5.698193   354A      5.737278  
     355A      5.760239   356A      5.780994   357A      5.786353  
     358A      5.821664   359A      5.861212   360A      5.871813  
     361A      5.922692   362A      5.970300   363A      5.998775  
     364A      6.066265   365A      6.175491   366A      6.182732  
     367A      6.270828   368A      6.353539   369A      6.371055  
     370A      6.400167   371A      6.409281   372A      6.425219  
     373A      6.484516   374A      6.543804   375A      6.598624  
     376A      6.764043   377A      6.849890   378A      6.895229  
     379A      6.913647   380A      6.916493   381A      6.921524  
     382A      6.988300   383A      7.040595   384A      7.063129  
     385A      7.127460   386A      7.153295   387A      7.209143  
     388A      7.279531   389A      7.337135   390A      7.407111  
     391A      7.414581   392A      7.434629   393A      7.452415  
     394A      7.477620   395A      7.520335   396A      7.629692  
     397A      7.658810   398A      7.795682   399A      7.797351  
     400A      7.828371   401A      7.861241   402A      8.054314  
     403A      8.140615   404A      8.235907   405A      8.492484  
     406A      8.548659   407A      8.846329   408A      8.922543  
     409A     15.823051   410A     16.281650   411A     18.045862  
     412A     18.378120   413A     19.000891   414A     19.614364  

    Final Occupation by Irrep:
              A 
    DOCC [    24 ]

  @DF-RHF Final Energy:  -337.88542795004690

   => Energetics <=

    Nuclear Repulsion Energy =            245.3799042871014819
    One-Electron Energy =                -949.2373778942803710
    Two-Electron Energy =                 365.9720456571320142
    Total Energy =                       -337.8854279500469033

Computation Completed


Properties will be evaluated at   0.000000,   0.000000,   0.000000 [a0]

Properties computed using the SCF density matrix

  Nuclear Dipole Moment: [e a0]
     X:     0.5015      Y:    -0.0692      Z:    -0.0000

  Electronic Dipole Moment: [e a0]
     X:    -0.4321      Y:    -0.0301      Z:     0.0000

  Dipole Moment: [e a0]
     X:     0.0694      Y:    -0.0993      Z:    -0.0000     Total:     0.1212

  Dipole Moment: [D]
     X:     0.1764      Y:    -0.2525      Z:    -0.0000     Total:     0.3080


*** tstop() called on node51.bme.utexas.edu at Tue Sep 10 12:07:11 2019
Module time:
	user time   =      76.83 seconds =       1.28 minutes
	system time =       1.76 seconds =       0.03 minutes
	total time  =         21 seconds =       0.35 minutes
Total time:
	user time   =      76.83 seconds =       1.28 minutes
	system time =       1.76 seconds =       0.03 minutes
	total time  =         21 seconds =       0.35 minutes

  //>>>>>>>>>>>>>>>>>>>>>>>>>>>>>>>>>>>//
  //            Monomer A HF           //
  //<<<<<<<<<<<<<<<<<<<<<<<<<<<<<<<<<<<//


*** tstart() called on node51.bme.utexas.edu
*** at Tue Sep 10 12:07:11 2019

   => Loading Basis Set <=

    Name: AUG-CC-PVTZ
    Role: ORBITAL
    Keyword: BASIS
    atoms 1, 7             entry C          line   235 file /home/xy3866/psi4conda/share/psi4/basis/aug-cc-pvtz.gbs 
    atoms 2, 5-6, 8, 11-12 entry H          line    36 file /home/xy3866/psi4conda/share/psi4/basis/aug-cc-pvtz.gbs 
    atoms 3, 9             entry O          line   327 file /home/xy3866/psi4conda/share/psi4/basis/aug-cc-pvtz.gbs 
    atoms 4, 10            entry N          line   281 file /home/xy3866/psi4conda/share/psi4/basis/aug-cc-pvtz.gbs 


         ---------------------------------------------------------
                                   SCF
               by Justin Turney, Rob Parrish, Andy Simmonett
                          and Daniel G. A. Smith
                              RHF Reference
                        4 Threads,  30517 MiB Core
         ---------------------------------------------------------

  ==> Geometry <==

    Molecular point group: c1
    Full point group: C1

    Geometry (in Angstrom), charge = 0, multiplicity = 1:

       Center              X                  Y                   Z               Mass       
    ------------   -----------------  -----------------  -----------------  -----------------
         C            1.715137455744    -0.296844591913     0.000003205365    12.000000000000
         H            2.809859455744    -0.388372591913    -0.000003794635     1.007825032230
         O            0.993282455744    -1.289533591913    -0.000000794635    15.994914619570
         N            1.287922455744     0.974810408087     0.000000205365    14.003074004430
         H            0.289580455744     1.186417408087     0.000000205365     1.007825032230
         H            2.532504255744     1.640002808087    -0.000003694635     1.007825032230
      Gh(C)          -1.727975744256     0.298615808087     0.000000305365    12.000000000000
      Gh(H)          -2.822697744256     0.390143808087    -0.000001694635     1.007825032230
      Gh(O)          -1.006120744256     1.291304808087    -0.000000694635    15.994914619570
      Gh(N)          -1.300760744256    -0.973039191913    -0.000000694635    14.003074004430
      Gh(H)          -0.302418744256    -1.184646191913    -0.000000694635     1.007825032230
      Gh(H)          -1.971831744256    -1.717355191913    -0.000001694635     1.007825032230

  Running in c1 symmetry.

  Rotational constants: A =      0.18922  B =      0.09457  C =      0.06305 [cm^-1]
  Rotational constants: A =   5672.70436  B =   2835.02618  C =   1890.31203 [MHz]
  Nuclear repulsion =   69.930965854281993

  Charge       = 0
  Multiplicity = 1
  Electrons    = 24
  Nalpha       = 12
  Nbeta        = 12

  ==> Algorithm <==

  SCF Algorithm Type is DF.
  DIIS enabled.
  MOM disabled.
  Fractional occupation disabled.
  Guess Type is SAD.
  Energy threshold   = 1.00e-08
  Density threshold  = 1.00e-08
  Integral threshold = 0.00e+00

  ==> Primary Basis <==

  Basis Set: AUG-CC-PVTZ
    Blend: AUG-CC-PVTZ
    Number of shells: 138
    Number of basis function: 414
    Number of Cartesian functions: 480
    Spherical Harmonics?: true
    Max angular momentum: 3

   => Loading Basis Set <=

    Name: (AUG-CC-PVTZ AUX)
    Role: JKFIT
    Keyword: DF_BASIS_SCF
    atoms 1, 7             entry C          line   162 file /home/xy3866/psi4conda/share/psi4/basis/aug-cc-pvtz-jkfit.gbs 
    atoms 2, 5-6, 8, 11-12 entry H          line    70 file /home/xy3866/psi4conda/share/psi4/basis/aug-cc-pvtz-jkfit.gbs 
    atoms 3, 9             entry O          line   286 file /home/xy3866/psi4conda/share/psi4/basis/aug-cc-pvtz-jkfit.gbs 
    atoms 4, 10            entry N          line   224 file /home/xy3866/psi4conda/share/psi4/basis/aug-cc-pvtz-jkfit.gbs 

  ==> Pre-Iterations <==

   -------------------------------------------------------
    Irrep   Nso     Nmo     Nalpha   Nbeta   Ndocc  Nsocc
   -------------------------------------------------------
     A        414     414       0       0       0       0
   -------------------------------------------------------
    Total     414     414      12      12      12       0
   -------------------------------------------------------

  ==> Integral Setup <==

  ==> DiskDFJK: Density-Fitted J/K Matrices <==

    J tasked:                  Yes
    K tasked:                  Yes
    wK tasked:                  No
    OpenMP threads:              4
    Integrals threads:           4
    Memory [MiB]:            22888
    Algorithm:                Core
    Integral Cache:           LOAD
    Schwarz Cutoff:          1E-12
    Fitting Condition:       1E-10

   => Auxiliary Basis Set <=

  Basis Set: (AUG-CC-PVTZ AUX)
    Blend: AUG-CC-PVTZ-JKFIT
    Number of shells: 264
    Number of basis function: 900
    Number of Cartesian functions: 1116
    Spherical Harmonics?: true
    Max angular momentum: 4

  Minimum eigenvalue in the overlap matrix is 2.2970102120E-05.
  Using Symmetric Orthogonalization.

  SCF Guess: Superposition of Atomic Densities via on-the-fly atomic UHF.

  ==> Iterations <==

                           Total Energy        Delta E     RMS |[F,P]|

   @DF-RHF iter SAD:  -168.01470162039379   -1.68015e+02   0.00000e+00 
   @DF-RHF iter   1:  -168.76203763018037   -7.47336e-01   1.31897e-03 DIIS
   @DF-RHF iter   2:  -168.84552586636659   -8.34882e-02   9.88298e-04 DIIS
   @DF-RHF iter   3:  -168.90405992138028   -5.85341e-02   1.29940e-04 DIIS
   @DF-RHF iter   4:  -168.90618876954821   -2.12885e-03   6.69298e-05 DIIS
   @DF-RHF iter   5:  -168.90678100984599   -5.92240e-04   1.94302e-05 DIIS
   @DF-RHF iter   6:  -168.90689013754383   -1.09128e-04   8.64538e-06 DIIS
   @DF-RHF iter   7:  -168.90691067004420   -2.05325e-05   3.17455e-06 DIIS
   @DF-RHF iter   8:  -168.90691320468386   -2.53464e-06   1.03950e-06 DIIS
   @DF-RHF iter   9:  -168.90691348414401   -2.79460e-07   2.92485e-07 DIIS
   @DF-RHF iter  10:  -168.90691351009895   -2.59549e-08   7.01152e-08 DIIS
   @DF-RHF iter  11:  -168.90691351144659   -1.34764e-09   1.42500e-08 DIIS
   @DF-RHF iter  12:  -168.90691351149587   -4.92832e-11   3.11903e-09 DIIS
  Energy and wave function converged.


  ==> Post-Iterations <==

    Orbital Energies [Eh]
    ---------------------

    Doubly Occupied:                                                      

       1A    -20.525004     2A    -15.626186     3A    -11.352750  
       4A     -1.373973     5A     -1.198100     6A     -0.846569  
       7A     -0.685424     8A     -0.667505     9A     -0.568946  
      10A     -0.557809    11A     -0.430731    12A     -0.417058  

    Virtual:                                                              

      13A      0.011724    14A      0.028196    15A      0.040714  
      16A      0.054066    17A      0.057626    18A      0.069772  
      19A      0.075634    20A      0.086650    21A      0.086975  
      22A      0.098443    23A      0.099991    24A      0.117006  
      25A      0.132843    26A      0.135279    27A      0.142910  
      28A      0.151086    29A      0.152624    30A      0.159633  
      31A      0.165338    32A      0.180502    33A      0.194425  
      34A      0.200757    35A      0.208286    36A      0.222315  
      37A      0.225709    38A      0.250645    39A      0.251849  
      40A      0.257062    41A      0.257106    42A      0.268057  
      43A      0.276773    44A      0.291879    45A      0.300953  
      46A      0.306506    47A      0.307844    48A      0.323782  
      49A      0.324468    50A      0.329321    51A      0.340247  
      52A      0.353923    53A      0.363805    54A      0.366748  
      55A      0.379685    56A      0.381645    57A      0.402812  
      58A      0.407170    59A      0.407348    60A      0.413541  
      61A      0.419992    62A      0.426541    63A      0.439868  
      64A      0.454341    65A      0.454615    66A      0.473292  
      67A      0.479354    68A      0.491999    69A      0.504521  
      70A      0.512216    71A      0.526684    72A      0.545712  
      73A      0.561873    74A      0.568694    75A      0.576804  
      76A      0.578866    77A      0.587601    78A      0.605484  
      79A      0.630921    80A      0.636321    81A      0.642639  
      82A      0.644218    83A      0.659691    84A      0.676871  
      85A      0.688041    86A      0.706391    87A      0.718291  
      88A      0.742490    89A      0.747723    90A      0.752162  
      91A      0.752331    92A      0.771893    93A      0.777276  
      94A      0.791576    95A      0.799998    96A      0.828658  
      97A      0.835991    98A      0.858068    99A      0.867546  
     100A      0.870945   101A      0.870947   102A      0.884314  
     103A      0.894258   104A      0.900384   105A      0.916458  
     106A      0.919054   107A      0.935598   108A      0.936957  
     109A      0.952949   110A      0.953779   111A      0.954804  
     112A      0.962553   113A      0.980490   114A      0.983704  
     115A      1.006237   116A      1.011876   117A      1.023690  
     118A      1.026438   119A      1.029725   120A      1.036502  
     121A      1.076717   122A      1.083767   123A      1.091067  
     124A      1.094155   125A      1.094280   126A      1.113875  
     127A      1.121044   128A      1.131351   129A      1.147356  
     130A      1.154187   131A      1.157356   132A      1.188355  
     133A      1.190358   134A      1.191785   135A      1.210391  
     136A      1.240054   137A      1.250521   138A      1.267917  
     139A      1.283575   140A      1.284128   141A      1.313637  
     142A      1.320352   143A      1.325539   144A      1.343378  
     145A      1.354777   146A      1.368651   147A      1.380344  
     148A      1.417637   149A      1.423160   150A      1.430327  
     151A      1.438248   152A      1.460066   153A      1.473265  
     154A      1.477390   155A      1.487592   156A      1.511023  
     157A      1.514045   158A      1.535773   159A      1.543460  
     160A      1.559238   161A      1.588049   162A      1.600463  
     163A      1.609349   164A      1.619021   165A      1.651411  
     166A      1.684572   167A      1.686019   168A      1.693948  
     169A      1.696828   170A      1.707300   171A      1.720187  
     172A      1.738149   173A      1.741969   174A      1.750298  
     175A      1.757415   176A      1.774956   177A      1.776890  
     178A      1.811848   179A      1.830867   180A      1.834045  
     181A      1.867438   182A      1.879003   183A      1.902629  
     184A      1.918915   185A      1.922189   186A      1.943890  
     187A      1.959317   188A      1.975858   189A      1.999281  
     190A      2.009877   191A      2.052378   192A      2.079875  
     193A      2.128674   194A      2.133919   195A      2.139545  
     196A      2.155444   197A      2.181317   198A      2.194435  
     199A      2.216267   200A      2.255619   201A      2.269233  
     202A      2.276169   203A      2.311028   204A      2.364475  
     205A      2.376409   206A      2.395395   207A      2.430739  
     208A      2.452448   209A      2.477028   210A      2.488296  
     211A      2.492202   212A      2.524921   213A      2.541645  
     214A      2.550691   215A      2.571973   216A      2.604129  
     217A      2.610913   218A      2.631731   219A      2.644589  
     220A      2.687939   221A      2.704809   222A      2.739254  
     223A      2.745047   224A      2.746631   225A      2.757038  
     226A      2.761379   227A      2.768454   228A      2.835716  
     229A      2.838753   230A      2.865349   231A      2.868265  
     232A      2.895622   233A      2.903653   234A      2.933465  
     235A      2.951559   236A      2.995131   237A      3.006949  
     238A      3.033481   239A      3.068193   240A      3.084958  
     241A      3.128668   242A      3.166468   243A      3.177817  
     244A      3.210242   245A      3.214355   246A      3.259995  
     247A      3.280277   248A      3.341562   249A      3.343100  
     250A      3.347665   251A      3.373192   252A      3.426877  
     253A      3.454637   254A      3.454725   255A      3.481094  
     256A      3.537731   257A      3.561802   258A      3.571489  
     259A      3.645485   260A      3.649571   261A      3.664860  
     262A      3.694972   263A      3.712817   264A      3.741769  
     265A      3.781048   266A      3.834898   267A      3.878184  
     268A      3.897578   269A      4.008168   270A      4.025389  
     271A      4.052157   272A      4.068726   273A      4.078258  
     274A      4.097942   275A      4.108014   276A      4.139810  
     277A      4.155210   278A      4.163316   279A      4.201732  
     280A      4.218794   281A      4.263117   282A      4.263947  
     283A      4.346652   284A      4.362247   285A      4.367299  
     286A      4.414484   287A      4.446819   288A      4.471587  
     289A      4.481377   290A      4.505863   291A      4.549977  
     292A      4.556424   293A      4.579875   294A      4.616590  
     295A      4.666588   296A      4.690497   297A      4.752622  
     298A      4.777088   299A      4.783550   300A      4.813220  
     301A      4.815520   302A      4.832393   303A      4.872487  
     304A      4.905491   305A      4.921998   306A      4.939341  
     307A      4.974684   308A      5.015527   309A      5.019064  
     310A      5.032454   311A      5.088996   312A      5.103429  
     313A      5.123685   314A      5.145669   315A      5.167373  
     316A      5.174561   317A      5.205477   318A      5.220540  
     319A      5.282114   320A      5.282605   321A      5.318782  
     322A      5.366262   323A      5.379181   324A      5.408196  
     325A      5.409308   326A      5.423057   327A      5.502929  
     328A      5.516514   329A      5.520844   330A      5.544648  
     331A      5.582956   332A      5.601887   333A      5.614526  
     334A      5.690201   335A      5.740733   336A      5.779275  
     337A      5.781178   338A      5.815966   339A      5.868801  
     340A      5.879066   341A      5.939808   342A      5.954657  
     343A      6.045458   344A      6.100730   345A      6.152803  
     346A      6.193747   347A      6.260661   348A      6.332386  
     349A      6.344996   350A      6.428143   351A      6.445143  
     352A      6.553120   353A      6.606920   354A      6.646034  
     355A      6.650349   356A      6.725700   357A      6.795302  
     358A      6.850257   359A      6.857464   360A      6.866090  
     361A      6.930534   362A      6.964435   363A      6.979267  
     364A      7.069934   365A      7.132087   366A      7.203538  
     367A      7.224824   368A      7.260793   369A      7.298385  
     370A      7.410404   371A      7.414184   372A      7.504702  
     373A      7.587028   374A      7.669435   375A      7.733380  
     376A      7.735174   377A      7.783945   378A      7.784913  
     379A      7.873802   380A      7.912218   381A      8.002929  
     382A      8.010435   383A      8.074897   384A      8.084775  
     385A      8.134704   386A      8.188047   387A      8.295988  
     388A      8.498504   389A      8.544032   390A      8.856368  
     391A      8.891128   392A      9.113809   393A      9.220943  
     394A      9.692263   395A      9.768711   396A      9.877783  
     397A      9.916182   398A     10.210173   399A     10.420191  
     400A     10.688658   401A     11.061984   402A     11.343857  
     403A     11.851491   404A     11.952708   405A     12.624414  
     406A     13.059728   407A     13.315222   408A     14.205829  
     409A     16.145130   410A     17.999417   411A     19.023652  
     412A     52.474111   413A     62.999960   414A     67.650763  

    Final Occupation by Irrep:
              A 
    DOCC [    12 ]

  @DF-RHF Final Energy:  -168.90691351149587

   => Energetics <=

    Nuclear Repulsion Energy =             69.9309658542819932
    One-Electron Energy =                -369.1756461531108471
    Two-Electron Energy =                 130.3377667873329528
    Total Energy =                       -168.9069135114958726

Computation Completed


Properties will be evaluated at   0.000000,   0.000000,   0.000000 [a0]

Properties computed using the SCF density matrix

  Nuclear Dipole Moment: [e a0]
     X:    62.1427      Y:    -5.3585      Z:     0.0000

  Electronic Dipole Moment: [e a0]
     X:   -61.3232      Y:     6.9445      Z:    -0.0000

  Dipole Moment: [e a0]
     X:     0.8195      Y:     1.5860      Z:    -0.0000     Total:     1.7852

  Dipole Moment: [D]
     X:     2.0828      Y:     4.0311      Z:    -0.0000     Total:     4.5374


*** tstop() called on node51.bme.utexas.edu at Tue Sep 10 12:07:24 2019
Module time:
	user time   =      46.71 seconds =       0.78 minutes
	system time =       1.05 seconds =       0.02 minutes
	total time  =         13 seconds =       0.22 minutes
Total time:
	user time   =     123.56 seconds =       2.06 minutes
	system time =       2.82 seconds =       0.05 minutes
	total time  =         34 seconds =       0.57 minutes

  //>>>>>>>>>>>>>>>>>>>>>>>>>>>>>>>>>>>//
  //            Monomer B HF           //
  //<<<<<<<<<<<<<<<<<<<<<<<<<<<<<<<<<<<//


*** tstart() called on node51.bme.utexas.edu
*** at Tue Sep 10 12:07:24 2019

   => Loading Basis Set <=

    Name: AUG-CC-PVTZ
    Role: ORBITAL
    Keyword: BASIS
    atoms 1, 7             entry C          line   235 file /home/xy3866/psi4conda/share/psi4/basis/aug-cc-pvtz.gbs 
    atoms 2, 5-6, 8, 11-12 entry H          line    36 file /home/xy3866/psi4conda/share/psi4/basis/aug-cc-pvtz.gbs 
    atoms 3, 9             entry O          line   327 file /home/xy3866/psi4conda/share/psi4/basis/aug-cc-pvtz.gbs 
    atoms 4, 10            entry N          line   281 file /home/xy3866/psi4conda/share/psi4/basis/aug-cc-pvtz.gbs 


         ---------------------------------------------------------
                                   SCF
               by Justin Turney, Rob Parrish, Andy Simmonett
                          and Daniel G. A. Smith
                              RHF Reference
                        4 Threads,  30517 MiB Core
         ---------------------------------------------------------

  ==> Geometry <==

    Molecular point group: c1
    Full point group: C1

    Geometry (in Angstrom), charge = 0, multiplicity = 1:

       Center              X                  Y                   Z               Mass       
    ------------   -----------------  -----------------  -----------------  -----------------
      Gh(C)           1.715137455744    -0.296844591913     0.000003205365    12.000000000000
      Gh(H)           2.809859455744    -0.388372591913    -0.000003794635     1.007825032230
      Gh(O)           0.993282455744    -1.289533591913    -0.000000794635    15.994914619570
      Gh(N)           1.287922455744     0.974810408087     0.000000205365    14.003074004430
      Gh(H)           0.289580455744     1.186417408087     0.000000205365     1.007825032230
      Gh(H)           2.532504255744     1.640002808087    -0.000003694635     1.007825032230
         C           -1.727975744256     0.298615808087     0.000000305365    12.000000000000
         H           -2.822697744256     0.390143808087    -0.000001694635     1.007825032230
         O           -1.006120744256     1.291304808087    -0.000000694635    15.994914619570
         N           -1.300760744256    -0.973039191913    -0.000000694635    14.003074004430
         H           -0.302418744256    -1.184646191913    -0.000000694635     1.007825032230
         H           -1.971831744256    -1.717355191913    -0.000001694635     1.007825032230

  Running in c1 symmetry.

  Rotational constants: A =      0.18922  B =      0.09457  C =      0.06305 [cm^-1]
  Rotational constants: A =   5672.70436  B =   2835.02618  C =   1890.31203 [MHz]
  Nuclear repulsion =   71.161114512123262

  Charge       = 0
  Multiplicity = 1
  Electrons    = 24
  Nalpha       = 12
  Nbeta        = 12

  ==> Algorithm <==

  SCF Algorithm Type is DF.
  DIIS enabled.
  MOM disabled.
  Fractional occupation disabled.
  Guess Type is SAD.
  Energy threshold   = 1.00e-08
  Density threshold  = 1.00e-08
  Integral threshold = 0.00e+00

  ==> Primary Basis <==

  Basis Set: AUG-CC-PVTZ
    Blend: AUG-CC-PVTZ
    Number of shells: 138
    Number of basis function: 414
    Number of Cartesian functions: 480
    Spherical Harmonics?: true
    Max angular momentum: 3

   => Loading Basis Set <=

    Name: (AUG-CC-PVTZ AUX)
    Role: JKFIT
    Keyword: DF_BASIS_SCF
    atoms 1, 7             entry C          line   162 file /home/xy3866/psi4conda/share/psi4/basis/aug-cc-pvtz-jkfit.gbs 
    atoms 2, 5-6, 8, 11-12 entry H          line    70 file /home/xy3866/psi4conda/share/psi4/basis/aug-cc-pvtz-jkfit.gbs 
    atoms 3, 9             entry O          line   286 file /home/xy3866/psi4conda/share/psi4/basis/aug-cc-pvtz-jkfit.gbs 
    atoms 4, 10            entry N          line   224 file /home/xy3866/psi4conda/share/psi4/basis/aug-cc-pvtz-jkfit.gbs 

  ==> Pre-Iterations <==

   -------------------------------------------------------
    Irrep   Nso     Nmo     Nalpha   Nbeta   Ndocc  Nsocc
   -------------------------------------------------------
     A        414     414       0       0       0       0
   -------------------------------------------------------
    Total     414     414      12      12      12       0
   -------------------------------------------------------

  ==> Integral Setup <==

  ==> DiskDFJK: Density-Fitted J/K Matrices <==

    J tasked:                  Yes
    K tasked:                  Yes
    wK tasked:                  No
    OpenMP threads:              4
    Integrals threads:           4
    Memory [MiB]:            22888
    Algorithm:                Core
    Integral Cache:           LOAD
    Schwarz Cutoff:          1E-12
    Fitting Condition:       1E-10

   => Auxiliary Basis Set <=

  Basis Set: (AUG-CC-PVTZ AUX)
    Blend: AUG-CC-PVTZ-JKFIT
    Number of shells: 264
    Number of basis function: 900
    Number of Cartesian functions: 1116
    Spherical Harmonics?: true
    Max angular momentum: 4

  Minimum eigenvalue in the overlap matrix is 2.2970102120E-05.
  Using Symmetric Orthogonalization.

  SCF Guess: Superposition of Atomic Densities via on-the-fly atomic UHF.

  ==> Iterations <==

                           Total Energy        Delta E     RMS |[F,P]|

   @DF-RHF iter SAD:  -168.20327192161031   -1.68203e+02   0.00000e+00 
   @DF-RHF iter   1:  -168.87980769850748   -6.76536e-01   1.29329e-03 DIIS
   @DF-RHF iter   2:  -168.95795164682818   -7.81439e-02   8.83315e-04 DIIS
   @DF-RHF iter   3:  -169.00166863031839   -4.37170e-02   1.26831e-04 DIIS
   @DF-RHF iter   4:  -169.00310869679564   -1.44007e-03   5.48173e-05 DIIS
   @DF-RHF iter   5:  -169.00341216085894   -3.03464e-04   1.09800e-05 DIIS
   @DF-RHF iter   6:  -169.00344219741305   -3.00366e-05   5.23525e-06 DIIS
   @DF-RHF iter   7:  -169.00344851210582   -6.31469e-06   2.10969e-06 DIIS
   @DF-RHF iter   8:  -169.00344962300335   -1.11090e-06   6.37489e-07 DIIS
   @DF-RHF iter   9:  -169.00344972713953   -1.04136e-07   1.75892e-07 DIIS
   @DF-RHF iter  10:  -169.00344973531321   -8.17369e-09   4.35643e-08 DIIS
   @DF-RHF iter  11:  -169.00344973572123   -4.08022e-10   7.78987e-09 DIIS
  Energy and wave function converged.


  ==> Post-Iterations <==

    Orbital Energies [Eh]
    ---------------------

    Doubly Occupied:                                                      

       1A    -20.526892     2A    -15.602048     3A    -11.356531  
       4A     -1.376895     5A     -1.227341     6A     -0.854884  
       7A     -0.756179     8A     -0.677314     9A     -0.603145  
      10A     -0.571922    11A     -0.435206    12A     -0.422107  

    Virtual:                                                              

      13A      0.018611    14A      0.030047    15A      0.040253  
      16A      0.056353    17A      0.056527    18A      0.069482  
      19A      0.084695    20A      0.087368    21A      0.091846  
      22A      0.099438    23A      0.113093    24A      0.124780  
      25A      0.130914    26A      0.134070    27A      0.144024  
      28A      0.152809    29A      0.154381    30A      0.163466  
      31A      0.173188    32A      0.180844    33A      0.198956  
      34A      0.204269    35A      0.212258    36A      0.220204  
      37A      0.226564    38A      0.251851    39A      0.253827  
      40A      0.261137    41A      0.262300    42A      0.275337  
      43A      0.284421    44A      0.291859    45A      0.305562  
      46A      0.309050    47A      0.311790    48A      0.324538  
      49A      0.336675    50A      0.338521    51A      0.344343  
      52A      0.353127    53A      0.363058    54A      0.370337  
      55A      0.378079    56A      0.396744    57A      0.397637  
      58A      0.397850    59A      0.409638    60A      0.420536  
      61A      0.420540    62A      0.427973    63A      0.437896  
      64A      0.460568    65A      0.463439    66A      0.467044  
      67A      0.487362    68A      0.495109    69A      0.502380  
      70A      0.510267    71A      0.530692    72A      0.543983  
      73A      0.556139    74A      0.556172    75A      0.565511  
      76A      0.573316    77A      0.586043    78A      0.595100  
      79A      0.618026    80A      0.638866    81A      0.646048  
      82A      0.661403    83A      0.664404    84A      0.678113  
      85A      0.700908    86A      0.702025    87A      0.730766  
      88A      0.733971    89A      0.741508    90A      0.749718  
      91A      0.752159    92A      0.767857    93A      0.773006  
      94A      0.796591    95A      0.807392    96A      0.836094  
      97A      0.836501    98A      0.854957    99A      0.867919  
     100A      0.868748   101A      0.880583   102A      0.896089  
     103A      0.903539   104A      0.904802   105A      0.914884  
     106A      0.916856   107A      0.930644   108A      0.942920  
     109A      0.950309   110A      0.969409   111A      0.977675  
     112A      0.979782   113A      0.981948   114A      1.002192  
     115A      1.011054   116A      1.015043   117A      1.019803  
     118A      1.032949   119A      1.055209   120A      1.067507  
     121A      1.084369   122A      1.089239   123A      1.094564  
     124A      1.102588   125A      1.108881   126A      1.115714  
     127A      1.121457   128A      1.130996   129A      1.141135  
     130A      1.164645   131A      1.169792   132A      1.171259  
     133A      1.179477   134A      1.188242   135A      1.195950  
     136A      1.221009   137A      1.227135   138A      1.259436  
     139A      1.276248   140A      1.285122   141A      1.293915  
     142A      1.308105   143A      1.316499   144A      1.329643  
     145A      1.341317   146A      1.363476   147A      1.371594  
     148A      1.397736   149A      1.422866   150A      1.435119  
     151A      1.436194   152A      1.460055   153A      1.462332  
     154A      1.487423   155A      1.500216   156A      1.520163  
     157A      1.530277   158A      1.531310   159A      1.554028  
     160A      1.557932   161A      1.582984   162A      1.595482  
     163A      1.626855   164A      1.629162   165A      1.647153  
     166A      1.654763   167A      1.663550   168A      1.683353  
     169A      1.689929   170A      1.715270   171A      1.728102  
     172A      1.738704   173A      1.738746   174A      1.746822  
     175A      1.754852   176A      1.767368   177A      1.767454  
     178A      1.829046   179A      1.838406   180A      1.864595  
     181A      1.898075   182A      1.901697   183A      1.925575  
     184A      1.927072   185A      1.943095   186A      1.964051  
     187A      1.973779   188A      1.995227   189A      2.030474  
     190A      2.038266   191A      2.076047   192A      2.088812  
     193A      2.094397   194A      2.106250   195A      2.141154  
     196A      2.188307   197A      2.194884   198A      2.205475  
     199A      2.222584   200A      2.228717   201A      2.271472  
     202A      2.309887   203A      2.322916   204A      2.326303  
     205A      2.346578   206A      2.390480   207A      2.414704  
     208A      2.420411   209A      2.440483   210A      2.468612  
     211A      2.474298   212A      2.517255   213A      2.533162  
     214A      2.559424   215A      2.560710   216A      2.570640  
     217A      2.589399   218A      2.618335   219A      2.635107  
     220A      2.668700   221A      2.690070   222A      2.696055  
     223A      2.716315   224A      2.738664   225A      2.766987  
     226A      2.773390   227A      2.805899   228A      2.820848  
     229A      2.828448   230A      2.846240   231A      2.872207  
     232A      2.883292   233A      2.898720   234A      2.924750  
     235A      2.937334   236A      2.958328   237A      2.984799  
     238A      3.004439   239A      3.056768   240A      3.073884  
     241A      3.103812   242A      3.125565   243A      3.156851  
     244A      3.174199   245A      3.203415   246A      3.265794  
     247A      3.266079   248A      3.315040   249A      3.351837  
     250A      3.363043   251A      3.377603   252A      3.412668  
     253A      3.468233   254A      3.470976   255A      3.498790  
     256A      3.537217   257A      3.559546   258A      3.639994  
     259A      3.665404   260A      3.666471   261A      3.684980  
     262A      3.706936   263A      3.744807   264A      3.776052  
     265A      3.816113   266A      3.907169   267A      3.913596  
     268A      4.002964   269A      4.058042   270A      4.086879  
     271A      4.095363   272A      4.121123   273A      4.121733  
     274A      4.149048   275A      4.173185   276A      4.190285  
     277A      4.202567   278A      4.209637   279A      4.283156  
     280A      4.305403   281A      4.334574   282A      4.352263  
     283A      4.353177   284A      4.383623   285A      4.404923  
     286A      4.405000   287A      4.445438   288A      4.477702  
     289A      4.486331   290A      4.497838   291A      4.566069  
     292A      4.579534   293A      4.610496   294A      4.640591  
     295A      4.683803   296A      4.701269   297A      4.723264  
     298A      4.729698   299A      4.793568   300A      4.796232  
     301A      4.825148   302A      4.835771   303A      4.861480  
     304A      4.886305   305A      4.938301   306A      4.955843  
     307A      4.962743   308A      4.984028   309A      5.006530  
     310A      5.013475   311A      5.070172   312A      5.107907  
     313A      5.111538   314A      5.118761   315A      5.124802  
     316A      5.185398   317A      5.202966   318A      5.230909  
     319A      5.243171   320A      5.257684   321A      5.320035  
     322A      5.320466   323A      5.350099   324A      5.419433  
     325A      5.426906   326A      5.445852   327A      5.483478  
     328A      5.511477   329A      5.523795   330A      5.584813  
     331A      5.591939   332A      5.613604   333A      5.644607  
     334A      5.730209   335A      5.749089   336A      5.775571  
     337A      5.803769   338A      5.847435   339A      5.880969  
     340A      5.908656   341A      5.943458   342A      5.955922  
     343A      6.052594   344A      6.142781   345A      6.151787  
     346A      6.160845   347A      6.187377   348A      6.243966  
     349A      6.381448   350A      6.414552   351A      6.450073  
     352A      6.527648   353A      6.540792   354A      6.610421  
     355A      6.661285   356A      6.684124   357A      6.748062  
     358A      6.846753   359A      6.849793   360A      6.920672  
     361A      6.958477   362A      6.973785   363A      6.995145  
     364A      7.047494   365A      7.167740   366A      7.198108  
     367A      7.225701   368A      7.259844   369A      7.284978  
     370A      7.405196   371A      7.486789   372A      7.518232  
     373A      7.544512   374A      7.631229   375A      7.661196  
     376A      7.703037   377A      7.727200   378A      7.784985  
     379A      7.820889   380A      7.827156   381A      7.916875  
     382A      7.994383   383A      8.058114   384A      8.073892  
     385A      8.094373   386A      8.182472   387A      8.188823  
     388A      8.362989   389A      8.502963   390A      8.660967  
     391A      8.819863   392A      8.955963   393A      9.108689  
     394A      9.345469   395A      9.661659   396A      9.862995  
     397A      9.902279   398A     10.208340   399A     10.445681  
     400A     10.453211   401A     10.966285   402A     11.153438  
     403A     11.846379   404A     11.942404   405A     12.572100  
     406A     12.978541   407A     13.055370   408A     14.235489  
     409A     16.255540   410A     18.355213   411A     19.563456  
     412A     52.585528   413A     61.120329   414A     67.602529  

    Final Occupation by Irrep:
              A 
    DOCC [    12 ]

  @DF-RHF Final Energy:  -169.00344973572123

   => Energetics <=

    Nuclear Repulsion Energy =             71.1611145121232624
    One-Electron Energy =                -371.5081984125634449
    Two-Electron Energy =                 131.3436341647189352
    Total Energy =                       -169.0034497357212331

Computation Completed


Properties will be evaluated at   0.000000,   0.000000,   0.000000 [a0]

Properties computed using the SCF density matrix

  Nuclear Dipole Moment: [e a0]
     X:   -61.6412      Y:     5.2893      Z:    -0.0000

  Electronic Dipole Moment: [e a0]
     X:    61.0193      Y:    -6.9312      Z:     0.0000

  Dipole Moment: [e a0]
     X:    -0.6219      Y:    -1.6419      Z:    -0.0000     Total:     1.7557

  Dipole Moment: [D]
     X:    -1.5806      Y:    -4.1732      Z:    -0.0000     Total:     4.4625


*** tstop() called on node51.bme.utexas.edu at Tue Sep 10 12:07:38 2019
Module time:
	user time   =      43.71 seconds =       0.73 minutes
	system time =       1.09 seconds =       0.02 minutes
	total time  =         14 seconds =       0.23 minutes
Total time:
	user time   =     167.29 seconds =       2.79 minutes
	system time =       3.91 seconds =       0.07 minutes
	total time  =         48 seconds =       0.80 minutes
  Constructing Basis Sets for SAPT...

   => Loading Basis Set <=

    Name: (AUG-CC-PVTZ AUX)
    Role: RIFIT
    Keyword: DF_BASIS_SAPT
    atoms 1, 7             entry C          line   148 file /home/xy3866/psi4conda/share/psi4/basis/aug-cc-pvtz-ri.gbs 
    atoms 2, 5-6, 8, 11-12 entry H          line    30 file /home/xy3866/psi4conda/share/psi4/basis/aug-cc-pvtz-ri.gbs 
    atoms 3, 9             entry O          line   264 file /home/xy3866/psi4conda/share/psi4/basis/aug-cc-pvtz-ri.gbs 
    atoms 4, 10            entry N          line   206 file /home/xy3866/psi4conda/share/psi4/basis/aug-cc-pvtz-ri.gbs 


  //>>>>>>>>>>>>>>>>>>>>>>>>>>>>>>>>>>>//
  //               SAPT2+              //
  //<<<<<<<<<<<<<<<<<<<<<<<<<<<<<<<<<<<//


*** tstart() called on node51.bme.utexas.edu
*** at Tue Sep 10 12:07:38 2019

        SAPT2+  
    Ed Hohenstein
     6 June 2009

      Orbital Information
  --------------------------
    NSO        =       414
    NMO        =       414
    NRI        =       912
    NOCC A     =        12
    NOCC B     =        12
    FOCC A     =         3
    FOCC B     =         3
    NVIR A     =       402
    NVIR B     =       402

    Estimated memory usage: 1737.6 MB

    Natural Orbital Cutoff:   1.000E-06
    Disp(T3) Truncation:            Yes
    CCD (vv|vv) Truncation:         Yes
    MBPT T2 Truncation:             Yes

    Monomer A: 208 virtual orbitals dropped
    Monomer B: 211 virtual orbitals dropped

    Elst10,r            =    -0.124698660952 [Eh]
    Exch10 (S^2)        =     0.227622249622 [Eh]
    Exch10              =     0.242121503351 [Eh]
    Ind20,r (A<-B)      =    -0.063703372189 [Eh]
    Ind20,r (B<-A)      =    -0.065645469570 [Eh]
    Ind20,r             =    -0.129348841758 [Eh]
    Exch-Ind20,r (A<-B) =     0.038115220665 [Eh]
    Exch-Ind20,r (B<-A) =     0.039086429037 [Eh]
    Exch-Ind20,r        =     0.077201649701 [Eh]
    Disp20              =    -0.048270267595 [Eh]
    Disp20 (NO)         =    -0.043696394207 [Eh]
    Exch-Disp20         =     0.011407956819 [Eh]
    Elst12,r            =     0.001927456427 [Eh]
    Exch11              =     0.000953955849 [Eh]
    Exch12              =     0.013312036181 [Eh]
    Ind22               =    -0.014953615901 [Eh]
    Disp21              =     0.006449283472 [Eh]
    Disp22 (SDQ)        =    -0.000890125201 [Eh]

    (i =   1 of   9)         40 seconds
    (i =   2 of   9)         76 seconds
    (i =   3 of   9)        107 seconds
    (i =   4 of   9)        137 seconds
    (i =   5 of   9)        166 seconds
    (i =   6 of   9)        195 seconds
    (i =   7 of   9)        225 seconds
    (i =   8 of   9)        254 seconds
    (i =   9 of   9)        286 seconds

    Disp220 (T)         =    -0.003659426174 [Eh]

    (i =   1 of   9)         35 seconds
    (i =   2 of   9)         70 seconds
    (i =   3 of   9)        105 seconds
    (i =   4 of   9)        141 seconds
    (i =   5 of   9)        176 seconds
    (i =   6 of   9)        209 seconds
    (i =   7 of   9)        238 seconds
    (i =   8 of   9)        267 seconds
    (i =   9 of   9)        295 seconds

    Disp202 (T)         =    -0.003518008409 [Eh]

    Disp22 (T)          =    -0.007177434584 [Eh]

    Est. Disp220 (T)    =    -0.004042472700 [Eh]
    Est. Disp202 (T)    =    -0.003886252182 [Eh]

    Est. Disp22 (T)     =    -0.007928724882 [Eh]

    SAPT Results 
  --------------------------------------------------------------------------------------------------------
    Electrostatics               -122.77120453 [mEh]     -77.04009395 [kcal/mol]    -322.33575307 [kJ/mol]
      Elst10,r                   -124.69866095 [mEh]     -78.24959111 [kcal/mol]    -327.39628922 [kJ/mol]
      Elst12,r                      1.92745643 [mEh]       1.20949717 [kcal/mol]       5.06053615 [kJ/mol]

    Exchange                      256.38749538 [mEh]     160.88558231 [kcal/mol]     673.14527638 [kJ/mol]
      Exch10                      242.12150335 [mEh]     151.93353716 [kcal/mol]     635.68991947 [kJ/mol]
      Exch10(S^2)                 227.62224962 [mEh]     142.83511808 [kcal/mol]     597.62213405 [kJ/mol]
      Exch11(S^2)                   0.95395585 [mEh]       0.59861633 [kcal/mol]       2.50461074 [kJ/mol]
      Exch12(S^2)                  13.31203618 [mEh]       8.35342882 [kcal/mol]      34.95074618 [kJ/mol]

    Induction                     -98.51611935 [mEh]     -61.81979821 [kcal/mol]    -258.65403572 [kJ/mol]
      Ind20,r                    -129.34884176 [mEh]     -81.16762363 [kcal/mol]    -339.60533725 [kJ/mol]
      Ind22                       -14.95361590 [mEh]      -9.38353564 [kcal/mol]     -39.26071314 [kJ/mol]
      Exch-Ind20,r                 77.20164970 [mEh]      48.44476658 [kcal/mol]     202.69290337 [kJ/mol]
      Exch-Ind22                    8.92504178 [mEh]       5.60054827 [kcal/mol]      23.43269396 [kJ/mol]
      delta HF,r (2)              -40.34035317 [mEh]     -25.31395379 [kcal/mol]    -105.91358266 [kJ/mol]

    Dispersion                    -39.23187739 [mEh]     -24.61837473 [kcal/mol]    -103.00327989 [kJ/mol]
      Disp20                      -48.27026759 [mEh]     -30.29005022 [kcal/mol]    -126.73357011 [kJ/mol]
      Disp21                        6.44928347 [mEh]       4.04698648 [kcal/mol]      16.93259142 [kJ/mol]
      Disp22 (SDQ)                 -0.89012520 [mEh]      -0.55856200 [kcal/mol]      -2.33702339 [kJ/mol]
      Disp22 (T)                   -7.17743458 [mEh]      -4.50390820 [kcal/mol]     -18.84435190 [kJ/mol]
      Est. Disp22 (T)              -7.92872488 [mEh]      -4.97534998 [kcal/mol]     -20.81686431 [kJ/mol]
      Exch-Disp20                  11.40795682 [mEh]       7.15860098 [kcal/mol]      29.95158650 [kJ/mol]

  Total HF                         24.93529717 [mEh]      15.64713521 [kcal/mol]      65.46761370 [kJ/mol]
  Total SAPT0                     -11.92701361 [mEh]      -7.48431403 [kcal/mol]     -31.31436991 [kJ/mol]
  Total SAPT2                      -1.76213927 [mEh]      -1.10575909 [kcal/mol]      -4.62649602 [kJ/mol]
  Total SAPT2+                     -4.13170588 [mEh]      -2.59268458 [kcal/mol]     -10.84779230 [kJ/mol]

  Special recipe for scaled SAPT0 (see Manual):
    Electrostatics sSAPT0        -124.69866095 [mEh]     -78.24959111 [kcal/mol]    -327.39628922 [kJ/mol]
    Exchange sSAPT0               242.12150335 [mEh]     151.93353716 [kcal/mol]     635.68991947 [kJ/mol]
    Induction sSAPT0              -76.77490066 [mEh]     -48.17697751 [kcal/mol]    -201.57247392 [kJ/mol]
    Dispersion sSAPT0             -34.54047994 [mEh]     -21.67447839 [kcal/mol]     -90.68601759 [kJ/mol]
  Total sSAPT0                      6.10746179 [mEh]       3.83249014 [kcal/mol]      16.03513873 [kJ/mol]
  --------------------------------------------------------------------------------------------------------

*** tstop() called on node51.bme.utexas.edu at Tue Sep 10 12:21:31 2019
Module time:
	user time   =    3157.25 seconds =      52.62 minutes
	system time =      76.89 seconds =       1.28 minutes
	total time  =        833 seconds =      13.88 minutes
Total time:
	user time   =    3324.87 seconds =      55.41 minutes
	system time =      80.81 seconds =       1.35 minutes
	total time  =        881 seconds =      14.68 minutes

    Psi4 stopped on: Tuesday, 10 September 2019 12:21PM
    Psi4 wall time for execution: 0:14:40.40

*** Psi4 exiting successfully. Buy a developer a beer!
