
    -----------------------------------------------------------------------
          Psi4: An Open-Source Ab Initio Electronic Structure Package
                               Psi4 1.3.2 release

                         Git: Rev {HEAD} ecbda83 


    R. M. Parrish, L. A. Burns, D. G. A. Smith, A. C. Simmonett,
    A. E. DePrince III, E. G. Hohenstein, U. Bozkaya, A. Yu. Sokolov,
    R. Di Remigio, R. M. Richard, J. F. Gonthier, A. M. James,
    H. R. McAlexander, A. Kumar, M. Saitow, X. Wang, B. P. Pritchard,
    P. Verma, H. F. Schaefer III, K. Patkowski, R. A. King, E. F. Valeev,
    F. A. Evangelista, J. M. Turney, T. D. Crawford, and C. D. Sherrill,
    J. Chem. Theory Comput. 13(7) pp 3185--3197 (2017).
    (doi: 10.1021/acs.jctc.7b00174)


                         Additional Contributions by
    P. Kraus, H. Kruse, M. H. Lechner, M. C. Schieber, R. A. Shaw,
    A. Alenaizan, R. Galvelis, Z. L. Glick, S. Lehtola, and J. P. Misiewicz

    -----------------------------------------------------------------------


    Psi4 started on: Monday, 09 September 2019 08:59PM

    Process ID: 61492
    Host:       node54.bme.utexas.edu
    PSIDATADIR: /home/xy3866/psi4conda/share/psi4
    Memory:     500.0 MiB
    Threads:    4
    
  ==> Input File <==

--------------------------------------------------------------------------
#psi4
#
memory 32 gb

molecule  {
0 1
  C       -1.9644470     0.1609890    -0.0000020
  H       -3.0589320     0.1627090    -0.0000040
  O       -1.3160380     1.1929960    -0.0000020
  O       -1.4968300    -1.0660630     0.0000020
  H       -0.4778920    -1.0649310     0.0000090
--
0 1
  C        2.2818153    -0.1935693    -0.0000030
  H        3.3636313    -0.3157943    -0.0000050
  N        1.4640243    -1.1909363    -0.0000009
  H        1.9746193    -2.0644413    -0.0000009
  N        1.8669653     1.0832547     0.0000020
  H        0.8709483     1.2817877     0.0000010
  H        2.5338852     1.8279307     0.0000041
units angstrom
no_reorient  #important for SAPT in psi4, default
symmetry c1  #important for SAPT in psi4, default
}

set {
basis aug-cc-pVTZ
scf_type DF
freeze_core True
}
energy('sapt2+')
--------------------------------------------------------------------------

  Memory set to  29.802 GiB by Python driver.

  //>>>>>>>>>>>>>>>>>>>>>>>>>>>>>>>>>>>//
  //              Dimer HF             //
  //<<<<<<<<<<<<<<<<<<<<<<<<<<<<<<<<<<<//


*** tstart() called on node54.bme.utexas.edu
*** at Mon Sep  9 20:59:30 2019

   => Loading Basis Set <=

    Name: AUG-CC-PVTZ
    Role: ORBITAL
    Keyword: BASIS
    atoms 1, 6              entry C          line   235 file /home/xy3866/psi4conda/share/psi4/basis/aug-cc-pvtz.gbs 
    atoms 2, 5, 7, 9, 11-12 entry H          line    36 file /home/xy3866/psi4conda/share/psi4/basis/aug-cc-pvtz.gbs 
    atoms 3-4               entry O          line   327 file /home/xy3866/psi4conda/share/psi4/basis/aug-cc-pvtz.gbs 
    atoms 8, 10             entry N          line   281 file /home/xy3866/psi4conda/share/psi4/basis/aug-cc-pvtz.gbs 


         ---------------------------------------------------------
                                   SCF
               by Justin Turney, Rob Parrish, Andy Simmonett
                          and Daniel G. A. Smith
                              RHF Reference
                        4 Threads,  30517 MiB Core
         ---------------------------------------------------------

  ==> Geometry <==

    Molecular point group: c1
    Full point group: C1

    Geometry (in Angstrom), charge = 0, multiplicity = 1:

       Center              X                  Y                   Z               Mass       
    ------------   -----------------  -----------------  -----------------  -----------------
         C           -2.083367269898     0.161462611946    -0.000001551728    12.000000000000
         H           -3.177852269898     0.163182611946    -0.000003551728     1.007825032230
         O           -1.434958269898     1.193469611946    -0.000001551728    15.994914619570
         O           -1.615750269898    -1.065589388054     0.000002448272    15.994914619570
         H           -0.596812269898    -1.064457388054     0.000009448272     1.007825032230
         C            2.162895030102    -0.193095688054    -0.000002551728    12.000000000000
         H            3.244711030102    -0.315320688054    -0.000004551728     1.007825032230
         N            1.345104030102    -1.190462688054    -0.000000451728    14.003074004430
         H            1.855699030102    -2.063967688054    -0.000000451728     1.007825032230
         N            1.748045030102     1.083728311946     0.000002448272    14.003074004430
         H            0.752028030102     1.282261311946     0.000001448272     1.007825032230
         H            2.414964930102     1.828404311946     0.000004548272     1.007825032230

  Running in c1 symmetry.

  Rotational constants: A =      0.19049  B =      0.05974  C =      0.04548 [cm^-1]
  Rotational constants: A =   5710.76697  B =   1790.89442  C =   1363.34875 [MHz]
  Nuclear repulsion =  225.714549116617576

  Charge       = 0
  Multiplicity = 1
  Electrons    = 48
  Nalpha       = 24
  Nbeta        = 24

  ==> Algorithm <==

  SCF Algorithm Type is DF.
  DIIS enabled.
  MOM disabled.
  Fractional occupation disabled.
  Guess Type is SAD.
  Energy threshold   = 1.00e-08
  Density threshold  = 1.00e-08
  Integral threshold = 0.00e+00

  ==> Primary Basis <==

  Basis Set: AUG-CC-PVTZ
    Blend: AUG-CC-PVTZ
    Number of shells: 138
    Number of basis function: 414
    Number of Cartesian functions: 480
    Spherical Harmonics?: true
    Max angular momentum: 3

   => Loading Basis Set <=

    Name: (AUG-CC-PVTZ AUX)
    Role: JKFIT
    Keyword: DF_BASIS_SCF
    atoms 1, 6              entry C          line   162 file /home/xy3866/psi4conda/share/psi4/basis/aug-cc-pvtz-jkfit.gbs 
    atoms 2, 5, 7, 9, 11-12 entry H          line    70 file /home/xy3866/psi4conda/share/psi4/basis/aug-cc-pvtz-jkfit.gbs 
    atoms 3-4               entry O          line   286 file /home/xy3866/psi4conda/share/psi4/basis/aug-cc-pvtz-jkfit.gbs 
    atoms 8, 10             entry N          line   224 file /home/xy3866/psi4conda/share/psi4/basis/aug-cc-pvtz-jkfit.gbs 

  ==> Pre-Iterations <==

   -------------------------------------------------------
    Irrep   Nso     Nmo     Nalpha   Nbeta   Ndocc  Nsocc
   -------------------------------------------------------
     A        414     414       0       0       0       0
   -------------------------------------------------------
    Total     414     414      24      24      24       0
   -------------------------------------------------------

  ==> Integral Setup <==

  ==> DiskDFJK: Density-Fitted J/K Matrices <==

    J tasked:                  Yes
    K tasked:                  Yes
    wK tasked:                  No
    OpenMP threads:              4
    Integrals threads:           4
    Memory [MiB]:            22888
    Algorithm:                Core
    Integral Cache:           SAVE
    Schwarz Cutoff:          1E-12
    Fitting Condition:       1E-10

   => Auxiliary Basis Set <=

  Basis Set: (AUG-CC-PVTZ AUX)
    Blend: AUG-CC-PVTZ-JKFIT
    Number of shells: 264
    Number of basis function: 900
    Number of Cartesian functions: 1116
    Spherical Harmonics?: true
    Max angular momentum: 4

  Minimum eigenvalue in the overlap matrix is 2.7348366208E-05.
  Using Symmetric Orthogonalization.

  SCF Guess: Superposition of Atomic Densities via on-the-fly atomic UHF.

  ==> Iterations <==

                           Total Energy        Delta E     RMS |[F,P]|

   @DF-RHF iter SAD:  -336.53992292920469   -3.36540e+02   0.00000e+00 
   @DF-RHF iter   1:  -337.78754830128486   -1.24763e+00   1.73891e-03 DIIS
   @DF-RHF iter   2:  -337.93771913893090   -1.50171e-01   1.06494e-03 DIIS
   @DF-RHF iter   3:  -338.00458236050247   -6.68632e-02   1.50212e-04 DIIS
   @DF-RHF iter   4:  -338.00688124019746   -2.29888e-03   7.32827e-05 DIIS
   @DF-RHF iter   5:  -338.00734584880621   -4.64609e-04   1.60488e-05 DIIS
   @DF-RHF iter   6:  -338.00740006812583   -5.42193e-05   7.98766e-06 DIIS
   @DF-RHF iter   7:  -338.00741377885748   -1.37107e-05   3.04313e-06 DIIS
   @DF-RHF iter   8:  -338.00741607143954   -2.29258e-06   1.13726e-06 DIIS
   @DF-RHF iter   9:  -338.00741636150923   -2.90070e-07   4.25461e-07 DIIS
   @DF-RHF iter  10:  -338.00741640126398   -3.97548e-08   1.57766e-07 DIIS
   @DF-RHF iter  11:  -338.00741640564178   -4.37780e-09   5.08060e-08 DIIS
   @DF-RHF iter  12:  -338.00741640608379   -4.42014e-10   1.57588e-08 DIIS
   @DF-RHF iter  13:  -338.00741640611773   -3.39355e-11   3.74374e-09 DIIS
  Energy and wave function converged.


  ==> Post-Iterations <==

    Orbital Energies [Eh]
    ---------------------

    Doubly Occupied:                                                      

       1A    -20.596985     2A    -20.545356     3A    -15.582109  
       4A    -15.537776     5A    -11.378874     6A    -11.331820  
       7A     -1.449401     8A     -1.349337     9A     -1.270980  
      10A     -1.151520    11A     -0.873163    12A     -0.838776  
      13A     -0.758309    14A     -0.707331    15A     -0.696325  
      16A     -0.648200    17A     -0.630795    18A     -0.614515  
      19A     -0.571982    20A     -0.540173    21A     -0.471147  
      22A     -0.463998    23A     -0.438358    24A     -0.374489  

    Virtual:                                                              

      25A      0.023304    26A      0.036786    27A      0.038776  
      28A      0.051009    29A      0.069836    30A      0.073308  
      31A      0.074640    32A      0.088377    33A      0.109162  
      34A      0.115478    35A      0.119779    36A      0.126599  
      37A      0.134681    38A      0.139681    39A      0.142952  
      40A      0.146181    41A      0.153666    42A      0.163010  
      43A      0.178666    44A      0.192091    45A      0.197184  
      46A      0.200764    47A      0.210465    48A      0.214614  
      49A      0.228603    50A      0.250056    51A      0.257861  
      52A      0.260654    53A      0.269948    54A      0.271274  
      55A      0.279856    56A      0.285077    57A      0.297282  
      58A      0.304133    59A      0.312771    60A      0.319069  
      61A      0.319267    62A      0.324614    63A      0.327604  
      64A      0.342537    65A      0.361344    66A      0.364241  
      67A      0.379398    68A      0.380428    69A      0.383401  
      70A      0.390754    71A      0.404192    72A      0.406117  
      73A      0.422699    74A      0.431008    75A      0.436741  
      76A      0.439248    77A      0.450854    78A      0.462327  
      79A      0.474961    80A      0.493551    81A      0.499092  
      82A      0.503603    83A      0.505306    84A      0.515462  
      85A      0.530128    86A      0.533683    87A      0.555788  
      88A      0.564078    89A      0.583471    90A      0.587140  
      91A      0.595632    92A      0.603430    93A      0.625543  
      94A      0.638328    95A      0.654241    96A      0.658364  
      97A      0.671092    98A      0.683889    99A      0.686207  
     100A      0.697277   101A      0.705016   102A      0.708438  
     103A      0.721746   104A      0.731502   105A      0.754685  
     106A      0.756334   107A      0.773556   108A      0.781701  
     109A      0.801754   110A      0.809829   111A      0.816801  
     112A      0.842529   113A      0.843820   114A      0.852545  
     115A      0.864151   116A      0.887490   117A      0.893581  
     118A      0.907608   119A      0.908686   120A      0.914037  
     121A      0.927299   122A      0.938505   123A      0.940709  
     124A      0.950676   125A      0.952897   126A      0.963296  
     127A      0.970240   128A      0.978182   129A      0.979725  
     130A      0.997890   131A      1.001447   132A      1.008368  
     133A      1.009822   134A      1.022331   135A      1.045759  
     136A      1.050159   137A      1.059488   138A      1.069888  
     139A      1.078041   140A      1.086671   141A      1.089268  
     142A      1.112800   143A      1.115390   144A      1.120587  
     145A      1.139393   146A      1.139780   147A      1.160032  
     148A      1.184062   149A      1.186763   150A      1.211326  
     151A      1.224126   152A      1.231635   153A      1.247286  
     154A      1.256618   155A      1.266807   156A      1.273335  
     157A      1.284381   158A      1.290705   159A      1.295687  
     160A      1.318394   161A      1.335610   162A      1.345910  
     163A      1.352339   164A      1.380190   165A      1.387568  
     166A      1.391864   167A      1.403522   168A      1.417926  
     169A      1.431811   170A      1.433357   171A      1.460025  
     172A      1.474069   173A      1.477446   174A      1.493415  
     175A      1.496576   176A      1.522559   177A      1.538735  
     178A      1.541984   179A      1.548037   180A      1.565197  
     181A      1.587199   182A      1.593647   183A      1.600939  
     184A      1.613545   185A      1.615067   186A      1.652083  
     187A      1.652221   188A      1.665419   189A      1.697795  
     190A      1.732926   191A      1.749151   192A      1.758147  
     193A      1.765833   194A      1.798462   195A      1.798557  
     196A      1.813370   197A      1.878268   198A      1.927667  
     199A      1.937440   200A      1.949481   201A      1.966380  
     202A      1.988949   203A      1.998780   204A      2.019831  
     205A      2.033405   206A      2.041032   207A      2.050193  
     208A      2.093421   209A      2.108199   210A      2.118581  
     211A      2.135293   212A      2.143432   213A      2.150741  
     214A      2.175374   215A      2.218588   216A      2.252399  
     217A      2.262841   218A      2.283893   219A      2.303741  
     220A      2.355476   221A      2.359611   222A      2.362034  
     223A      2.385737   224A      2.406946   225A      2.414316  
     226A      2.429747   227A      2.448664   228A      2.461400  
     229A      2.485482   230A      2.501991   231A      2.516669  
     232A      2.530640   233A      2.550044   234A      2.565644  
     235A      2.574712   236A      2.582762   237A      2.598446  
     238A      2.616633   239A      2.635074   240A      2.638085  
     241A      2.665604   242A      2.670491   243A      2.699073  
     244A      2.699214   245A      2.706160   246A      2.718820  
     247A      2.733649   248A      2.835793   249A      2.869759  
     250A      2.882113   251A      2.897503   252A      2.899641  
     253A      2.931254   254A      2.946434   255A      3.007917  
     256A      3.013416   257A      3.025998   258A      3.083496  
     259A      3.102199   260A      3.127212   261A      3.163454  
     262A      3.219763   263A      3.220804   264A      3.247604  
     265A      3.347909   266A      3.374734   267A      3.390899  
     268A      3.420338   269A      3.444230   270A      3.465689  
     271A      3.539261   272A      3.579089   273A      3.637753  
     274A      3.639089   275A      3.657873   276A      3.680721  
     277A      3.681950   278A      3.742891   279A      3.792583  
     280A      3.809913   281A      3.828158   282A      3.834691  
     283A      3.913671   284A      3.930370   285A      3.965711  
     286A      3.996030   287A      4.014673   288A      4.029935  
     289A      4.066065   290A      4.082184   291A      4.092801  
     292A      4.095247   293A      4.120022   294A      4.146239  
     295A      4.161947   296A      4.192609   297A      4.193273  
     298A      4.220849   299A      4.236172   300A      4.243065  
     301A      4.289668   302A      4.312201   303A      4.315020  
     304A      4.340645   305A      4.359388   306A      4.364258  
     307A      4.402026   308A      4.416060   309A      4.444259  
     310A      4.461307   311A      4.491529   312A      4.516677  
     313A      4.557692   314A      4.575254   315A      4.597549  
     316A      4.614967   317A      4.653024   318A      4.732367  
     319A      4.752397   320A      4.760023   321A      4.777888  
     322A      4.779377   323A      4.802325   324A      4.810418  
     325A      4.841726   326A      4.884002   327A      4.888229  
     328A      4.902223   329A      4.930343   330A      4.932317  
     331A      4.997143   332A      5.011172   333A      5.037546  
     334A      5.094940   335A      5.115663   336A      5.152427  
     337A      5.158349   338A      5.177167   339A      5.207269  
     340A      5.215500   341A      5.230621   342A      5.238582  
     343A      5.313250   344A      5.330297   345A      5.365938  
     346A      5.381758   347A      5.466504   348A      5.490330  
     349A      5.497290   350A      5.530896   351A      5.533804  
     352A      5.564576   353A      5.606186   354A      5.623511  
     355A      5.673381   356A      5.694963   357A      5.733386  
     358A      5.766561   359A      5.767798   360A      5.781332  
     361A      5.820016   362A      5.920898   363A      5.953665  
     364A      6.023708   365A      6.096044   366A      6.098796  
     367A      6.150799   368A      6.156609   369A      6.184888  
     370A      6.262158   371A      6.304985   372A      6.334892  
     373A      6.400831   374A      6.505541   375A      6.561329  
     376A      6.655874   377A      6.658987   378A      6.710480  
     379A      6.736928   380A      6.819839   381A      6.842117  
     382A      6.872247   383A      6.879335   384A      6.929631  
     385A      7.010626   386A      7.053627   387A      7.108147  
     388A      7.164909   389A      7.204352   390A      7.258236  
     391A      7.276976   392A      7.381304   393A      7.388109  
     394A      7.394840   395A      7.455727   396A      7.485266  
     397A      7.540834   398A      7.589005   399A      7.631258  
     400A      7.663095   401A      7.703286   402A      7.769787  
     403A      7.861909   404A      7.944528   405A      8.040755  
     406A      8.109950   407A      8.265136   408A      8.581443  
     409A     14.956741   410A     16.089128   411A     17.169468  
     412A     17.450117   413A     18.146432   414A     18.925540  

    Final Occupation by Irrep:
              A 
    DOCC [    24 ]

  @DF-RHF Final Energy:  -338.00741640611773

   => Energetics <=

    Nuclear Repulsion Energy =            225.7145491166175759
    One-Electron Energy =                -909.8005000378057048
    Two-Electron Energy =                 346.0785345150703733
    Total Energy =                       -338.0074164061177271

Computation Completed


Properties will be evaluated at   0.000000,   0.000000,   0.000000 [a0]

Properties computed using the SCF density matrix

  Nuclear Dipole Moment: [e a0]
     X:     4.1882      Y:    -0.1583      Z:     0.0000

  Electronic Dipole Moment: [e a0]
     X:    -3.0570      Y:     0.2440      Z:    -0.0000

  Dipole Moment: [e a0]
     X:     1.1312      Y:     0.0856      Z:     0.0000     Total:     1.1344

  Dipole Moment: [D]
     X:     2.8752      Y:     0.2176      Z:     0.0000     Total:     2.8834


*** tstop() called on node54.bme.utexas.edu at Mon Sep  9 20:59:48 2019
Module time:
	user time   =      64.64 seconds =       1.08 minutes
	system time =       1.29 seconds =       0.02 minutes
	total time  =         18 seconds =       0.30 minutes
Total time:
	user time   =      64.64 seconds =       1.08 minutes
	system time =       1.29 seconds =       0.02 minutes
	total time  =         18 seconds =       0.30 minutes

  //>>>>>>>>>>>>>>>>>>>>>>>>>>>>>>>>>>>//
  //            Monomer A HF           //
  //<<<<<<<<<<<<<<<<<<<<<<<<<<<<<<<<<<<//


*** tstart() called on node54.bme.utexas.edu
*** at Mon Sep  9 20:59:48 2019

   => Loading Basis Set <=

    Name: AUG-CC-PVTZ
    Role: ORBITAL
    Keyword: BASIS
    atoms 1, 6              entry C          line   235 file /home/xy3866/psi4conda/share/psi4/basis/aug-cc-pvtz.gbs 
    atoms 2, 5, 7, 9, 11-12 entry H          line    36 file /home/xy3866/psi4conda/share/psi4/basis/aug-cc-pvtz.gbs 
    atoms 3-4               entry O          line   327 file /home/xy3866/psi4conda/share/psi4/basis/aug-cc-pvtz.gbs 
    atoms 8, 10             entry N          line   281 file /home/xy3866/psi4conda/share/psi4/basis/aug-cc-pvtz.gbs 


         ---------------------------------------------------------
                                   SCF
               by Justin Turney, Rob Parrish, Andy Simmonett
                          and Daniel G. A. Smith
                              RHF Reference
                        4 Threads,  30517 MiB Core
         ---------------------------------------------------------

  ==> Geometry <==

    Molecular point group: c1
    Full point group: C1

    Geometry (in Angstrom), charge = 0, multiplicity = 1:

       Center              X                  Y                   Z               Mass       
    ------------   -----------------  -----------------  -----------------  -----------------
         C           -2.083367269898     0.161462611946    -0.000001551728    12.000000000000
         H           -3.177852269898     0.163182611946    -0.000003551728     1.007825032230
         O           -1.434958269898     1.193469611946    -0.000001551728    15.994914619570
         O           -1.615750269898    -1.065589388054     0.000002448272    15.994914619570
         H           -0.596812269898    -1.064457388054     0.000009448272     1.007825032230
      Gh(C)           2.162895030102    -0.193095688054    -0.000002551728    12.000000000000
      Gh(H)           3.244711030102    -0.315320688054    -0.000004551728     1.007825032230
      Gh(N)           1.345104030102    -1.190462688054    -0.000000451728    14.003074004430
      Gh(H)           1.855699030102    -2.063967688054    -0.000000451728     1.007825032230
      Gh(N)           1.748045030102     1.083728311946     0.000002448272    14.003074004430
      Gh(H)           0.752028030102     1.282261311946     0.000001448272     1.007825032230
      Gh(H)           2.414964930102     1.828404311946     0.000004548272     1.007825032230

  Running in c1 symmetry.

  Rotational constants: A =      0.19049  B =      0.05974  C =      0.04548 [cm^-1]
  Rotational constants: A =   5710.76697  B =   1790.89442  C =   1363.34875 [MHz]
  Nuclear repulsion =   69.995387312911120

  Charge       = 0
  Multiplicity = 1
  Electrons    = 24
  Nalpha       = 12
  Nbeta        = 12

  ==> Algorithm <==

  SCF Algorithm Type is DF.
  DIIS enabled.
  MOM disabled.
  Fractional occupation disabled.
  Guess Type is SAD.
  Energy threshold   = 1.00e-08
  Density threshold  = 1.00e-08
  Integral threshold = 0.00e+00

  ==> Primary Basis <==

  Basis Set: AUG-CC-PVTZ
    Blend: AUG-CC-PVTZ
    Number of shells: 138
    Number of basis function: 414
    Number of Cartesian functions: 480
    Spherical Harmonics?: true
    Max angular momentum: 3

   => Loading Basis Set <=

    Name: (AUG-CC-PVTZ AUX)
    Role: JKFIT
    Keyword: DF_BASIS_SCF
    atoms 1, 6              entry C          line   162 file /home/xy3866/psi4conda/share/psi4/basis/aug-cc-pvtz-jkfit.gbs 
    atoms 2, 5, 7, 9, 11-12 entry H          line    70 file /home/xy3866/psi4conda/share/psi4/basis/aug-cc-pvtz-jkfit.gbs 
    atoms 3-4               entry O          line   286 file /home/xy3866/psi4conda/share/psi4/basis/aug-cc-pvtz-jkfit.gbs 
    atoms 8, 10             entry N          line   224 file /home/xy3866/psi4conda/share/psi4/basis/aug-cc-pvtz-jkfit.gbs 

  ==> Pre-Iterations <==

   -------------------------------------------------------
    Irrep   Nso     Nmo     Nalpha   Nbeta   Ndocc  Nsocc
   -------------------------------------------------------
     A        414     414       0       0       0       0
   -------------------------------------------------------
    Total     414     414      12      12      12       0
   -------------------------------------------------------

  ==> Integral Setup <==

  ==> DiskDFJK: Density-Fitted J/K Matrices <==

    J tasked:                  Yes
    K tasked:                  Yes
    wK tasked:                  No
    OpenMP threads:              4
    Integrals threads:           4
    Memory [MiB]:            22888
    Algorithm:                Core
    Integral Cache:           LOAD
    Schwarz Cutoff:          1E-12
    Fitting Condition:       1E-10

   => Auxiliary Basis Set <=

  Basis Set: (AUG-CC-PVTZ AUX)
    Blend: AUG-CC-PVTZ-JKFIT
    Number of shells: 264
    Number of basis function: 900
    Number of Cartesian functions: 1116
    Spherical Harmonics?: true
    Max angular momentum: 4

  Minimum eigenvalue in the overlap matrix is 2.7348366208E-05.
  Using Symmetric Orthogonalization.

  SCF Guess: Superposition of Atomic Densities via on-the-fly atomic UHF.

  ==> Iterations <==

                           Total Energy        Delta E     RMS |[F,P]|

   @DF-RHF iter SAD:  -187.97904334289973   -1.87979e+02   0.00000e+00 
   @DF-RHF iter   1:  -188.73104747690368   -7.52004e-01   1.26150e-03 DIIS
   @DF-RHF iter   2:  -188.79373233864715   -6.26849e-02   8.97752e-04 DIIS
   @DF-RHF iter   3:  -188.83712505053515   -4.33927e-02   1.07165e-04 DIIS
   @DF-RHF iter   4:  -188.83827231824864   -1.14727e-03   5.67268e-05 DIIS
   @DF-RHF iter   5:  -188.83856225741505   -2.89939e-04   1.37148e-05 DIIS
   @DF-RHF iter   6:  -188.83860445537232   -4.21980e-05   5.90902e-06 DIIS
   @DF-RHF iter   7:  -188.83861383366241   -9.37829e-06   2.13312e-06 DIIS
   @DF-RHF iter   8:  -188.83861493623172   -1.10257e-06   6.70605e-07 DIIS
   @DF-RHF iter   9:  -188.83861504729728   -1.11066e-07   1.93446e-07 DIIS
   @DF-RHF iter  10:  -188.83861505630409   -9.00681e-09   4.30968e-08 DIIS
   @DF-RHF iter  11:  -188.83861505669009   -3.85995e-10   7.44544e-09 DIIS
  Energy and wave function converged.


  ==> Post-Iterations <==

    Orbital Energies [Eh]
    ---------------------

    Doubly Occupied:                                                      

       1A    -20.639730     2A    -20.560512     3A    -11.395833  
       4A     -1.478636     5A     -1.367933     6A     -0.898073  
       7A     -0.730475     8A     -0.708506     9A     -0.643568  
      10A     -0.593109    11A     -0.490085    12A     -0.469589  

    Virtual:                                                              

      13A      0.019431    14A      0.033351    15A      0.038435  
      16A      0.050525    17A      0.065205    18A      0.068554  
      19A      0.070997    20A      0.083134    21A      0.084129  
      22A      0.106829    23A      0.111050    24A      0.120047  
      25A      0.125950    26A      0.134474    27A      0.135887  
      28A      0.136238    29A      0.144617    30A      0.157032  
      31A      0.171372    32A      0.180753    33A      0.193660  
      34A      0.194749    35A      0.198459    36A      0.211589  
      37A      0.222575    38A      0.242224    39A      0.247722  
      40A      0.257271    41A      0.269079    42A      0.272040  
      43A      0.278537    44A      0.289739    45A      0.291033  
      46A      0.300521    47A      0.308015    48A      0.314415  
      49A      0.324024    50A      0.333900    51A      0.340071  
      52A      0.345249    53A      0.347374    54A      0.357345  
      55A      0.364929    56A      0.367059    57A      0.370218  
      58A      0.387237    59A      0.404194    60A      0.410702  
      61A      0.417369    62A      0.426897    63A      0.426999  
      64A      0.427504    65A      0.439602    66A      0.453038  
      67A      0.459502    68A      0.472656    69A      0.476039  
      70A      0.500801    71A      0.511885    72A      0.524723  
      73A      0.537257    74A      0.546005    75A      0.565045  
      76A      0.567452    77A      0.578788    78A      0.598806  
      79A      0.609184    80A      0.615434    81A      0.627515  
      82A      0.643524    83A      0.650424    84A      0.672675  
      85A      0.683350    86A      0.690774    87A      0.717480  
      88A      0.729689    89A      0.733731    90A      0.753405  
      91A      0.758275    92A      0.765472    93A      0.769326  
      94A      0.784199    95A      0.788882    96A      0.797405  
      97A      0.807075    98A      0.812102    99A      0.822996  
     100A      0.841863   101A      0.844599   102A      0.848610  
     103A      0.873137   104A      0.873464   105A      0.877597  
     106A      0.897466   107A      0.902428   108A      0.905397  
     109A      0.909264   110A      0.925097   111A      0.932514  
     112A      0.948947   113A      0.954031   114A      0.958067  
     115A      0.969922   116A      0.978834   117A      0.981371  
     118A      1.015439   119A      1.017154   120A      1.030725  
     121A      1.032391   122A      1.045474   123A      1.054513  
     124A      1.065979   125A      1.073211   126A      1.077462  
     127A      1.099025   128A      1.100018   129A      1.111376  
     130A      1.124365   131A      1.138299   132A      1.148914  
     133A      1.155164   134A      1.165764   135A      1.204531  
     136A      1.213815   137A      1.220737   138A      1.223862  
     139A      1.234642   140A      1.249545   141A      1.268855  
     142A      1.277896   143A      1.278312   144A      1.301004  
     145A      1.313515   146A      1.323877   147A      1.365020  
     148A      1.367253   149A      1.378538   150A      1.389650  
     151A      1.410361   152A      1.446731   153A      1.459996  
     154A      1.466724   155A      1.479846   156A      1.492747  
     157A      1.499591   158A      1.510547   159A      1.515950  
     160A      1.525207   161A      1.531985   162A      1.586736  
     163A      1.587853   164A      1.592559   165A      1.603092  
     166A      1.606914   167A      1.617098   168A      1.633084  
     169A      1.635539   170A      1.644470   171A      1.670428  
     172A      1.696287   173A      1.698152   174A      1.713488  
     175A      1.719746   176A      1.720813   177A      1.728593  
     178A      1.729675   179A      1.742493   180A      1.757144  
     181A      1.767045   182A      1.780848   183A      1.788922  
     184A      1.806698   185A      1.833289   186A      1.866143  
     187A      1.886859   188A      1.907973   189A      1.957917  
     190A      1.970643   191A      1.997499   192A      2.042884  
     193A      2.054804   194A      2.056855   195A      2.061249  
     196A      2.070096   197A      2.124900   198A      2.144132  
     199A      2.183954   200A      2.191992   201A      2.234161  
     202A      2.234523   203A      2.279902   204A      2.322551  
     205A      2.327387   206A      2.341003   207A      2.349270  
     208A      2.375348   209A      2.389753   210A      2.406866  
     211A      2.409950   212A      2.419296   213A      2.465733  
     214A      2.492962   215A      2.495005   216A      2.499107  
     217A      2.523056   218A      2.530330   219A      2.563952  
     220A      2.564210   221A      2.570942   222A      2.585508  
     223A      2.602034   224A      2.613271   225A      2.645124  
     226A      2.666544   227A      2.682948   228A      2.684722  
     229A      2.713473   230A      2.724668   231A      2.726520  
     232A      2.776535   233A      2.807745   234A      2.830844  
     235A      2.854736   236A      2.889784   237A      2.890502  
     238A      2.910798   239A      2.961327   240A      2.964682  
     241A      2.971885   242A      2.994839   243A      2.996185  
     244A      3.027418   245A      3.047435   246A      3.050165  
     247A      3.100522   248A      3.137775   249A      3.141653  
     250A      3.180950   251A      3.203661   252A      3.215984  
     253A      3.233448   254A      3.267551   255A      3.350726  
     256A      3.393650   257A      3.402225   258A      3.441879  
     259A      3.475341   260A      3.493643   261A      3.586731  
     262A      3.617893   263A      3.626462   264A      3.639646  
     265A      3.702705   266A      3.799139   267A      3.821620  
     268A      3.857001   269A      3.927405   270A      3.988955  
     271A      3.998108   272A      4.062807   273A      4.065931  
     274A      4.086048   275A      4.130936   276A      4.168543  
     277A      4.190281   278A      4.191402   279A      4.219322  
     280A      4.273383   281A      4.380909   282A      4.381890  
     283A      4.409852   284A      4.411860   285A      4.423061  
     286A      4.448532   287A      4.464097   288A      4.467912  
     289A      4.561651   290A      4.566481   291A      4.599016  
     292A      4.641915   293A      4.645046   294A      4.731208  
     295A      4.734098   296A      4.741706   297A      4.756147  
     298A      4.767379   299A      4.793592   300A      4.842616  
     301A      4.865416   302A      4.866572   303A      4.894888  
     304A      4.907995   305A      4.945621   306A      4.960132  
     307A      4.968439   308A      4.991287   309A      5.014355  
     310A      5.026126   311A      5.031612   312A      5.126806  
     313A      5.158584   314A      5.159574   315A      5.184548  
     316A      5.204716   317A      5.267373   318A      5.285268  
     319A      5.285479   320A      5.314405   321A      5.314999  
     322A      5.337349   323A      5.340308   324A      5.356326  
     325A      5.389141   326A      5.435230   327A      5.437969  
     328A      5.460125   329A      5.498834   330A      5.591344  
     331A      5.638711   332A      5.746073   333A      5.753427  
     334A      5.799952   335A      5.874449   336A      5.941983  
     337A      6.007898   338A      6.028210   339A      6.063064  
     340A      6.144648   341A      6.161221   342A      6.227732  
     343A      6.254954   344A      6.279958   345A      6.336938  
     346A      6.403904   347A      6.441393   348A      6.466816  
     349A      6.524999   350A      6.571488   351A      6.573510  
     352A      6.625872   353A      6.643773   354A      6.699265  
     355A      6.714348   356A      6.788895   357A      6.796151  
     358A      6.828846   359A      6.828913   360A      6.873732  
     361A      6.884635   362A      6.888727   363A      7.035268  
     364A      7.037738   365A      7.091996   366A      7.142423  
     367A      7.175635   368A      7.228406   369A      7.242394  
     370A      7.258912   371A      7.334042   372A      7.344137  
     373A      7.359527   374A      7.392753   375A      7.398136  
     376A      7.483018   377A      7.571546   378A      7.571589  
     379A      7.577970   380A      7.624035   381A      7.654336  
     382A      7.662623   383A      7.674228   384A      7.703945  
     385A      7.754279   386A      7.840336   387A      7.902834  
     388A      7.921882   389A      7.982623   390A      8.068434  
     391A      8.159145   392A      8.214358   393A      8.294770  
     394A      8.456195   395A      8.563331   396A      8.594330  
     397A      8.999761   398A      9.278853   399A      9.358718  
     400A      9.443509   401A      9.473453   402A     10.166996  
     403A     10.722253   404A     11.179422   405A     11.634852  
     406A     11.687834   407A     12.049106   408A     12.850053  
     409A     14.972795   410A     16.075104   411A     18.120469  
     412A     51.475864   413A     59.316481   414A     62.397757  

    Final Occupation by Irrep:
              A 
    DOCC [    12 ]

  @DF-RHF Final Energy:  -188.83861505669009

   => Energetics <=

    Nuclear Repulsion Energy =             69.9953873129111201
    One-Electron Energy =                -397.7159044632459199
    Two-Electron Energy =                 138.8819020936446975
    Total Energy =                       -188.8386150566900881

Computation Completed


Properties will be evaluated at   0.000000,   0.000000,   0.000000 [a0]

Properties computed using the SCF density matrix

  Nuclear Dipole Moment: [e a0]
     X:   -76.8751      Y:     2.0608      Z:     0.0000

  Electronic Dipole Moment: [e a0]
     X:    76.7672      Y:    -2.8923      Z:    -0.0000

  Dipole Moment: [e a0]
     X:    -0.1079      Y:    -0.8315      Z:     0.0000     Total:     0.8384

  Dipole Moment: [D]
     X:    -0.2743      Y:    -2.1133      Z:     0.0000     Total:     2.1311


*** tstop() called on node54.bme.utexas.edu at Mon Sep  9 20:59:57 2019
Module time:
	user time   =      33.82 seconds =       0.56 minutes
	system time =       0.72 seconds =       0.01 minutes
	total time  =          9 seconds =       0.15 minutes
Total time:
	user time   =      98.49 seconds =       1.64 minutes
	system time =       2.01 seconds =       0.03 minutes
	total time  =         27 seconds =       0.45 minutes

  //>>>>>>>>>>>>>>>>>>>>>>>>>>>>>>>>>>>//
  //            Monomer B HF           //
  //<<<<<<<<<<<<<<<<<<<<<<<<<<<<<<<<<<<//


*** tstart() called on node54.bme.utexas.edu
*** at Mon Sep  9 20:59:57 2019

   => Loading Basis Set <=

    Name: AUG-CC-PVTZ
    Role: ORBITAL
    Keyword: BASIS
    atoms 1, 6              entry C          line   235 file /home/xy3866/psi4conda/share/psi4/basis/aug-cc-pvtz.gbs 
    atoms 2, 5, 7, 9, 11-12 entry H          line    36 file /home/xy3866/psi4conda/share/psi4/basis/aug-cc-pvtz.gbs 
    atoms 3-4               entry O          line   327 file /home/xy3866/psi4conda/share/psi4/basis/aug-cc-pvtz.gbs 
    atoms 8, 10             entry N          line   281 file /home/xy3866/psi4conda/share/psi4/basis/aug-cc-pvtz.gbs 


         ---------------------------------------------------------
                                   SCF
               by Justin Turney, Rob Parrish, Andy Simmonett
                          and Daniel G. A. Smith
                              RHF Reference
                        4 Threads,  30517 MiB Core
         ---------------------------------------------------------

  ==> Geometry <==

    Molecular point group: c1
    Full point group: C1

    Geometry (in Angstrom), charge = 0, multiplicity = 1:

       Center              X                  Y                   Z               Mass       
    ------------   -----------------  -----------------  -----------------  -----------------
      Gh(C)          -2.083367269898     0.161462611946    -0.000001551728    12.000000000000
      Gh(H)          -3.177852269898     0.163182611946    -0.000003551728     1.007825032230
      Gh(O)          -1.434958269898     1.193469611946    -0.000001551728    15.994914619570
      Gh(O)          -1.615750269898    -1.065589388054     0.000002448272    15.994914619570
      Gh(H)          -0.596812269898    -1.064457388054     0.000009448272     1.007825032230
         C            2.162895030102    -0.193095688054    -0.000002551728    12.000000000000
         H            3.244711030102    -0.315320688054    -0.000004551728     1.007825032230
         N            1.345104030102    -1.190462688054    -0.000000451728    14.003074004430
         H            1.855699030102    -2.063967688054    -0.000000451728     1.007825032230
         N            1.748045030102     1.083728311946     0.000002448272    14.003074004430
         H            0.752028030102     1.282261311946     0.000001448272     1.007825032230
         H            2.414964930102     1.828404311946     0.000004548272     1.007825032230

  Running in c1 symmetry.

  Rotational constants: A =      0.19049  B =      0.05974  C =      0.04548 [cm^-1]
  Rotational constants: A =   5710.76697  B =   1790.89442  C =   1363.34875 [MHz]
  Nuclear repulsion =   72.334193080816050

  Charge       = 0
  Multiplicity = 1
  Electrons    = 24
  Nalpha       = 12
  Nbeta        = 12

  ==> Algorithm <==

  SCF Algorithm Type is DF.
  DIIS enabled.
  MOM disabled.
  Fractional occupation disabled.
  Guess Type is SAD.
  Energy threshold   = 1.00e-08
  Density threshold  = 1.00e-08
  Integral threshold = 0.00e+00

  ==> Primary Basis <==

  Basis Set: AUG-CC-PVTZ
    Blend: AUG-CC-PVTZ
    Number of shells: 138
    Number of basis function: 414
    Number of Cartesian functions: 480
    Spherical Harmonics?: true
    Max angular momentum: 3

   => Loading Basis Set <=

    Name: (AUG-CC-PVTZ AUX)
    Role: JKFIT
    Keyword: DF_BASIS_SCF
    atoms 1, 6              entry C          line   162 file /home/xy3866/psi4conda/share/psi4/basis/aug-cc-pvtz-jkfit.gbs 
    atoms 2, 5, 7, 9, 11-12 entry H          line    70 file /home/xy3866/psi4conda/share/psi4/basis/aug-cc-pvtz-jkfit.gbs 
    atoms 3-4               entry O          line   286 file /home/xy3866/psi4conda/share/psi4/basis/aug-cc-pvtz-jkfit.gbs 
    atoms 8, 10             entry N          line   224 file /home/xy3866/psi4conda/share/psi4/basis/aug-cc-pvtz-jkfit.gbs 

  ==> Pre-Iterations <==

   -------------------------------------------------------
    Irrep   Nso     Nmo     Nalpha   Nbeta   Ndocc  Nsocc
   -------------------------------------------------------
     A        414     414       0       0       0       0
   -------------------------------------------------------
    Total     414     414      12      12      12       0
   -------------------------------------------------------

  ==> Integral Setup <==

  ==> DiskDFJK: Density-Fitted J/K Matrices <==

    J tasked:                  Yes
    K tasked:                  Yes
    wK tasked:                  No
    OpenMP threads:              4
    Integrals threads:           4
    Memory [MiB]:            22888
    Algorithm:                Core
    Integral Cache:           LOAD
    Schwarz Cutoff:          1E-12
    Fitting Condition:       1E-10

   => Auxiliary Basis Set <=

  Basis Set: (AUG-CC-PVTZ AUX)
    Blend: AUG-CC-PVTZ-JKFIT
    Number of shells: 264
    Number of basis function: 900
    Number of Cartesian functions: 1116
    Spherical Harmonics?: true
    Max angular momentum: 4

  Minimum eigenvalue in the overlap matrix is 2.7348366208E-05.
  Using Symmetric Orthogonalization.

  SCF Guess: Superposition of Atomic Densities via on-the-fly atomic UHF.

  ==> Iterations <==

                           Total Energy        Delta E     RMS |[F,P]|

   @DF-RHF iter SAD:  -148.39929831642706   -1.48399e+02   0.00000e+00 
   @DF-RHF iter   1:  -148.99804691687837   -5.98749e-01   1.32805e-03 DIIS
   @DF-RHF iter   2:  -149.10013675207261   -1.02090e-01   7.81617e-04 DIIS
   @DF-RHF iter   3:  -149.14195705327748   -4.18203e-02   1.09333e-04 DIIS
   @DF-RHF iter   4:  -149.14336820546848   -1.41115e-03   5.40688e-05 DIIS
   @DF-RHF iter   5:  -149.14364523541644   -2.77030e-04   9.80240e-06 DIIS
   @DF-RHF iter   6:  -149.14367367557634   -2.84402e-05   4.60266e-06 DIIS
   @DF-RHF iter   7:  -149.14367832166562   -4.64609e-06   1.85506e-06 DIIS
   @DF-RHF iter   8:  -149.14367924156841   -9.19903e-07   5.49234e-07 DIIS
   @DF-RHF iter   9:  -149.14367932625413   -8.46857e-08   1.68527e-07 DIIS
   @DF-RHF iter  10:  -149.14367933374535   -7.49122e-09   4.17494e-08 DIIS
   @DF-RHF iter  11:  -149.14367933421249   -4.67139e-10   7.94144e-09 DIIS
  Energy and wave function converged.


  ==> Post-Iterations <==

    Orbital Energies [Eh]
    ---------------------

    Doubly Occupied:                                                      

       1A    -15.580684     2A    -15.518368     3A    -11.313915  
       4A     -1.260957     5A     -1.136091     6A     -0.830614  
       7A     -0.749116     8A     -0.640568     9A     -0.618121  
      10A     -0.530872    11A     -0.417498    12A     -0.358863  

    Virtual:                                                              

      13A      0.022739    14A      0.031695    15A      0.037691  
      16A      0.052127    17A      0.062149    18A      0.073430  
      19A      0.074622    20A      0.088737    21A      0.098188  
      22A      0.108668    23A      0.114581    24A      0.120116  
      25A      0.131889    26A      0.134857    27A      0.141049  
      28A      0.151388    29A      0.152621    30A      0.163390  
      31A      0.177499    32A      0.185506    33A      0.191763  
      34A      0.205697    35A      0.207171    36A      0.217779  
      37A      0.226562    38A      0.227984    39A      0.246075  
      40A      0.258281    41A      0.261318    42A      0.269591  
      43A      0.280262    44A      0.282684    45A      0.300937  
      46A      0.308160    47A      0.313444    48A      0.316429  
      49A      0.322069    50A      0.331661    51A      0.337142  
      52A      0.350056    53A      0.362128    54A      0.372059  
      55A      0.375161    56A      0.383453    57A      0.394335  
      58A      0.402236    59A      0.407278    60A      0.418137  
      61A      0.419996    62A      0.431503    63A      0.433047  
      64A      0.450460    65A      0.455544    66A      0.459327  
      67A      0.480260    68A      0.484582    69A      0.504375  
      70A      0.509053    71A      0.515277    72A      0.521972  
      73A      0.525859    74A      0.538912    75A      0.553161  
      76A      0.555179    77A      0.577680    78A      0.583612  
      79A      0.594903    80A      0.637505    81A      0.643311  
      82A      0.656031    83A      0.657965    84A      0.662953  
      85A      0.675482    86A      0.682429    87A      0.686835  
      88A      0.706114    89A      0.714304    90A      0.720555  
      91A      0.730567    92A      0.734224    93A      0.762642  
      94A      0.772288    95A      0.804162    96A      0.820817  
      97A      0.827948    98A      0.847876    99A      0.854897  
     100A      0.858570   101A      0.869866   102A      0.891013  
     103A      0.895835   104A      0.906915   105A      0.915473  
     106A      0.917385   107A      0.923125   108A      0.928483  
     109A      0.930099   110A      0.943092   111A      0.957741  
     112A      0.969354   113A      0.973959   114A      0.984759  
     115A      0.989284   116A      0.998965   117A      1.004307  
     118A      1.016177   119A      1.019499   120A      1.022121  
     121A      1.030088   122A      1.036011   123A      1.045136  
     124A      1.068000   125A      1.069832   126A      1.076222  
     127A      1.079603   128A      1.097931   129A      1.103327  
     130A      1.103930   131A      1.111237   132A      1.114650  
     133A      1.130466   134A      1.144728   135A      1.168443  
     136A      1.187358   137A      1.188499   138A      1.221326  
     139A      1.235872   140A      1.245724   141A      1.254299  
     142A      1.270465   143A      1.278887   144A      1.279946  
     145A      1.290853   146A      1.315869   147A      1.329601  
     148A      1.337025   149A      1.350954   150A      1.370945  
     151A      1.383559   152A      1.396246   153A      1.412746  
     154A      1.424147   155A      1.427056   156A      1.442286  
     157A      1.447353   158A      1.462304   159A      1.484453  
     160A      1.491052   161A      1.505519   162A      1.523559  
     163A      1.543990   164A      1.552985   165A      1.577250  
     166A      1.586003   167A      1.590034   168A      1.621953  
     169A      1.648563   170A      1.663988   171A      1.677082  
     172A      1.692156   173A      1.706471   174A      1.716503  
     175A      1.768094   176A      1.782470   177A      1.792918  
     178A      1.808295   179A      1.809088   180A      1.823630  
     181A      1.854095   182A      1.867341   183A      1.871607  
     184A      1.886943   185A      1.916143   186A      1.925933  
     187A      1.950054   188A      1.957024   189A      1.988846  
     190A      1.993289   191A      2.007586   192A      2.021168  
     193A      2.055467   194A      2.069589   195A      2.075809  
     196A      2.082836   197A      2.108955   198A      2.122358  
     199A      2.131315   200A      2.170458   201A      2.183418  
     202A      2.198167   203A      2.257024   204A      2.261439  
     205A      2.266249   206A      2.303285   207A      2.308618  
     208A      2.358457   209A      2.365396   210A      2.398659  
     211A      2.402804   212A      2.440868   213A      2.447270  
     214A      2.479179   215A      2.492223   216A      2.537056  
     217A      2.540833   218A      2.553605   219A      2.586131  
     220A      2.587858   221A      2.616532   222A      2.626460  
     223A      2.632935   224A      2.660063   225A      2.666557  
     226A      2.696919   227A      2.713253   228A      2.721577  
     229A      2.729349   230A      2.765164   231A      2.772383  
     232A      2.789016   233A      2.791854   234A      2.815383  
     235A      2.841182   236A      2.846513   237A      2.870447  
     238A      2.925333   239A      2.929694   240A      2.947295  
     241A      3.029335   242A      3.044332   243A      3.097042  
     244A      3.116257   245A      3.133661   246A      3.180444  
     247A      3.228992   248A      3.241978   249A      3.326596  
     250A      3.367994   251A      3.382766   252A      3.406184  
     253A      3.429882   254A      3.435911   255A      3.484782  
     256A      3.541599   257A      3.559300   258A      3.596818  
     259A      3.596932   260A      3.610210   261A      3.632505  
     262A      3.672687   263A      3.694639   264A      3.776097  
     265A      3.802877   266A      3.821685   267A      3.844122  
     268A      3.869734   269A      3.888431   270A      3.933459  
     271A      3.947852   272A      3.991725   273A      4.028997  
     274A      4.069423   275A      4.072368   276A      4.080917  
     277A      4.100232   278A      4.113475   279A      4.123311  
     280A      4.146872   281A      4.169977   282A      4.189595  
     283A      4.194470   284A      4.234799   285A      4.275898  
     286A      4.293514   287A      4.323165   288A      4.340073  
     289A      4.369158   290A      4.388808   291A      4.434806  
     292A      4.464126   293A      4.551442   294A      4.564024  
     295A      4.568450   296A      4.594894   297A      4.608688  
     298A      4.650202   299A      4.679173   300A      4.721712  
     301A      4.738689   302A      4.764311   303A      4.776975  
     304A      4.792145   305A      4.801444   306A      4.845028  
     307A      4.851699   308A      4.887643   309A      4.908152  
     310A      4.929368   311A      4.931476   312A      4.931477  
     313A      4.988305   314A      4.997085   315A      5.049475  
     316A      5.051477   317A      5.068273   318A      5.098676  
     319A      5.125890   320A      5.172090   321A      5.210294  
     322A      5.220364   323A      5.226968   324A      5.265069  
     325A      5.277621   326A      5.281473   327A      5.342960  
     328A      5.382274   329A      5.417752   330A      5.435693  
     331A      5.448293   332A      5.491007   333A      5.507124  
     334A      5.508796   335A      5.523578   336A      5.566299  
     337A      5.619213   338A      5.636041   339A      5.645605  
     340A      5.695209   341A      5.714864   342A      5.739011  
     343A      5.781889   344A      5.786812   345A      5.835575  
     346A      5.841383   347A      5.915348   348A      5.964236  
     349A      5.979016   350A      5.992585   351A      6.110853  
     352A      6.136490   353A      6.156715   354A      6.160385  
     355A      6.201319   356A      6.270896   357A      6.343151  
     358A      6.449448   359A      6.523962   360A      6.538860  
     361A      6.570461   362A      6.672469   363A      6.734098  
     364A      6.745808   365A      6.834430   366A      6.944621  
     367A      7.024794   368A      7.128182   369A      7.189345  
     370A      7.421363   371A      7.476970   372A      7.549927  
     373A      7.631269   374A      7.670754   375A      7.737284  
     376A      7.757391   377A      7.823848   378A      7.824366  
     379A      7.868409   380A      8.036475   381A      8.045751  
     382A      8.073992   383A      8.184747   384A      8.256320  
     385A      8.262135   386A      8.429500   387A      8.744933  
     388A      8.864166   389A      9.124254   390A      9.732811  
     391A      9.844441   392A      9.859081   393A      9.967503  
     394A      9.995667   395A     10.080508   396A     10.347680  
     397A     10.351001   398A     10.431054   399A     10.916963  
     400A     11.108047   401A     11.804317   402A     11.823549  
     403A     11.867495   404A     12.487296   405A     12.900947  
     406A     13.401822   407A     14.011768   408A     14.367149  
     409A     17.187890   410A     17.453800   411A     18.924606  
     412A     51.245136   413A     63.977776   414A     67.689901  

    Final Occupation by Irrep:
              A 
    DOCC [    12 ]

  @DF-RHF Final Energy:  -149.14367933421249

   => Energetics <=

    Nuclear Repulsion Energy =             72.3341930808160498
    One-Electron Energy =                -345.0444081317903056
    Two-Electron Energy =                 123.5665357167617913
    Total Energy =                       -149.1436793342124929

Computation Completed


Properties will be evaluated at   0.000000,   0.000000,   0.000000 [a0]

Properties computed using the SCF density matrix

  Nuclear Dipole Moment: [e a0]
     X:    81.0632      Y:    -2.2192      Z:    -0.0000

  Electronic Dipole Moment: [e a0]
     X:   -80.1498      Y:     3.1087      Z:    -0.0000

  Dipole Moment: [e a0]
     X:     0.9135      Y:     0.8896      Z:    -0.0000     Total:     1.2751

  Dipole Moment: [D]
     X:     2.3218      Y:     2.2610      Z:    -0.0000     Total:     3.2409


*** tstop() called on node54.bme.utexas.edu at Mon Sep  9 21:00:07 2019
Module time:
	user time   =      33.88 seconds =       0.56 minutes
	system time =       0.72 seconds =       0.01 minutes
	total time  =         10 seconds =       0.17 minutes
Total time:
	user time   =     132.40 seconds =       2.21 minutes
	system time =       2.73 seconds =       0.05 minutes
	total time  =         37 seconds =       0.62 minutes
  Constructing Basis Sets for SAPT...

   => Loading Basis Set <=

    Name: (AUG-CC-PVTZ AUX)
    Role: RIFIT
    Keyword: DF_BASIS_SAPT
    atoms 1, 6              entry C          line   148 file /home/xy3866/psi4conda/share/psi4/basis/aug-cc-pvtz-ri.gbs 
    atoms 2, 5, 7, 9, 11-12 entry H          line    30 file /home/xy3866/psi4conda/share/psi4/basis/aug-cc-pvtz-ri.gbs 
    atoms 3-4               entry O          line   264 file /home/xy3866/psi4conda/share/psi4/basis/aug-cc-pvtz-ri.gbs 
    atoms 8, 10             entry N          line   206 file /home/xy3866/psi4conda/share/psi4/basis/aug-cc-pvtz-ri.gbs 


  //>>>>>>>>>>>>>>>>>>>>>>>>>>>>>>>>>>>//
  //               SAPT2+              //
  //<<<<<<<<<<<<<<<<<<<<<<<<<<<<<<<<<<<//


*** tstart() called on node54.bme.utexas.edu
*** at Mon Sep  9 21:00:07 2019

        SAPT2+  
    Ed Hohenstein
     6 June 2009

      Orbital Information
  --------------------------
    NSO        =       414
    NMO        =       414
    NRI        =       912
    NOCC A     =        12
    NOCC B     =        12
    FOCC A     =         3
    FOCC B     =         3
    NVIR A     =       402
    NVIR B     =       402

    Estimated memory usage: 1737.6 MB

    Natural Orbital Cutoff:   1.000E-06
    Disp(T3) Truncation:            Yes
    CCD (vv|vv) Truncation:         Yes
    MBPT T2 Truncation:             Yes

    Monomer A: 238 virtual orbitals dropped
    Monomer B: 203 virtual orbitals dropped

    Elst10,r            =    -0.035236758552 [Eh]
    Exch10 (S^2)        =     0.023012977958 [Eh]
    Exch10              =     0.023277405090 [Eh]
    Ind20,r (A<-B)      =    -0.004248563011 [Eh]
    Ind20,r (B<-A)      =    -0.010688952715 [Eh]
    Ind20,r             =    -0.014937515726 [Eh]
    Exch-Ind20,r (A<-B) =     0.001617856204 [Eh]
    Exch-Ind20,r (B<-A) =     0.005357595165 [Eh]
    Exch-Ind20,r        =     0.006975451369 [Eh]
    Disp20              =    -0.010061708680 [Eh]
    Disp20 (NO)         =    -0.008769455363 [Eh]
    Exch-Disp20         =     0.001766603654 [Eh]
    Elst12,r            =     0.001461160821 [Eh]
    Exch11              =     0.000290321471 [Eh]
    Exch12              =     0.003257180108 [Eh]
    Ind22               =    -0.001607315617 [Eh]
    Disp21              =     0.000670430803 [Eh]
    Disp22 (SDQ)        =    -0.000133245121 [Eh]

    (i =   1 of   9)         18 seconds
    (i =   2 of   9)         37 seconds
    (i =   3 of   9)         56 seconds
    (i =   4 of   9)         75 seconds
    (i =   5 of   9)         93 seconds
    (i =   6 of   9)        112 seconds
    (i =   7 of   9)        130 seconds
    (i =   8 of   9)        149 seconds
    (i =   9 of   9)        168 seconds

    Disp220 (T)         =    -0.000940757750 [Eh]

    (i =   1 of   9)         26 seconds
    (i =   2 of   9)         51 seconds
    (i =   3 of   9)         77 seconds
    (i =   4 of   9)        102 seconds
    (i =   5 of   9)        128 seconds
    (i =   6 of   9)        154 seconds
    (i =   7 of   9)        180 seconds
    (i =   8 of   9)        205 seconds
    (i =   9 of   9)        231 seconds

    Disp202 (T)         =    -0.000782253757 [Eh]

    Disp22 (T)          =    -0.001723011507 [Eh]

    Est. Disp220 (T)    =    -0.001079386351 [Eh]
    Est. Disp202 (T)    =    -0.000897525455 [Eh]

    Est. Disp22 (T)     =    -0.001976911806 [Eh]

    SAPT Results 
  --------------------------------------------------------------------------------------------------------
    Electrostatics                -33.77559773 [mEh]     -21.19450756 [kcal/mol]     -88.67781963 [kJ/mol]
      Elst10,r                    -35.23675855 [mEh]     -22.11139982 [kcal/mol]     -92.51409683 [kJ/mol]
      Elst12,r                      1.46116082 [mEh]       0.91689226 [kcal/mol]       3.83627721 [kJ/mol]

    Exchange                       26.82490667 [mEh]      16.83288307 [kcal/mol]      70.42878276 [kJ/mol]
      Exch10                       23.27740509 [mEh]      14.60679222 [kcal/mol]      61.11481864 [kJ/mol]
      Exch10(S^2)                  23.01297796 [mEh]      14.44086169 [kcal/mol]      60.42056530 [kJ/mol]
      Exch11(S^2)                   0.29032147 [mEh]       0.18217947 [kcal/mol]       0.76223892 [kJ/mol]
      Exch12(S^2)                   3.25718011 [mEh]       2.04391138 [kcal/mol]       8.55172520 [kJ/mol]

    Induction                     -14.01940063 [mEh]      -8.79730671 [kcal/mol]     -36.80793127 [kJ/mol]
      Ind20,r                     -14.93751573 [mEh]      -9.37343263 [kcal/mol]     -39.21844214 [kJ/mol]
      Ind22                        -1.60731562 [mEh]      -1.00860578 [kcal/mol]      -4.22000657 [kJ/mol]
      Exch-Ind20,r                  6.97545137 [mEh]       4.37716182 [kcal/mol]      18.31404505 [kJ/mol]
      Exch-Ind22                    0.75057674 [mEh]       0.47099402 [kcal/mol]       1.97063897 [kJ/mol]
      delta HF,r (2)               -5.20059740 [mEh]      -3.26342414 [kcal/mol]     -13.65416658 [kJ/mol]

    Dispersion                     -9.73483115 [mEh]      -6.10869877 [kcal/mol]     -25.55879566 [kJ/mol]
      Disp20                      -10.06170868 [mEh]      -6.31381752 [kcal/mol]     -26.41701250 [kJ/mol]
      Disp21                        0.67043080 [mEh]       0.42070168 [kcal/mol]       1.76021583 [kJ/mol]
      Disp22 (SDQ)                 -0.13324512 [mEh]      -0.08361258 [kcal/mol]      -0.34983502 [kJ/mol]
      Disp22 (T)                   -1.72301151 [mEh]      -1.08120604 [kcal/mol]      -4.52376609 [kJ/mol]
      Est. Disp22 (T)              -1.97691181 [mEh]      -1.24053089 [kcal/mol]      -5.19038123 [kJ/mol]
      Exch-Disp20                   1.76660365 [mEh]       1.10856053 [kcal/mol]       4.63821726 [kJ/mol]

  Total HF                        -25.12201522 [mEh]     -15.76430255 [kcal/mol]     -65.95784186 [kJ/mol]
  Total SAPT0                     -33.41712024 [mEh]     -20.96955954 [kcal/mol]     -87.73663711 [kJ/mol]
  Total SAPT2                     -29.26519671 [mEh]     -18.36418819 [kcal/mol]     -76.83576339 [kJ/mol]
  Total SAPT2+                    -30.70492284 [mEh]     -19.26762997 [kcal/mol]     -80.61576380 [kJ/mol]

  Special recipe for scaled SAPT0 (see Manual):
    Electrostatics sSAPT0         -35.23675855 [mEh]     -22.11139982 [kcal/mol]     -92.51409683 [kJ/mol]
    Exchange sSAPT0                23.27740509 [mEh]      14.60679222 [kcal/mol]      61.11481864 [kJ/mol]
    Induction sSAPT0              -12.91943721 [mEh]      -8.10706924 [kcal/mol]     -33.91997771 [kJ/mol]
    Dispersion sSAPT0              -8.23350595 [mEh]      -5.16660298 [kcal/mol]     -21.61706689 [kJ/mol]
  Total sSAPT0                    -33.11229662 [mEh]     -20.77827983 [kcal/mol]     -86.93632279 [kJ/mol]
  --------------------------------------------------------------------------------------------------------

*** tstop() called on node54.bme.utexas.edu at Mon Sep  9 21:10:44 2019
Module time:
	user time   =    2263.21 seconds =      37.72 minutes
	system time =      50.78 seconds =       0.85 minutes
	total time  =        637 seconds =      10.62 minutes
Total time:
	user time   =    2395.97 seconds =      39.93 minutes
	system time =      53.52 seconds =       0.89 minutes
	total time  =        674 seconds =      11.23 minutes

    Psi4 stopped on: Monday, 09 September 2019 09:10PM
    Psi4 wall time for execution: 0:11:14.22

*** Psi4 exiting successfully. Buy a developer a beer!
