
    -----------------------------------------------------------------------
          Psi4: An Open-Source Ab Initio Electronic Structure Package
                               Psi4 1.3.2 release

                         Git: Rev {HEAD} ecbda83 


    R. M. Parrish, L. A. Burns, D. G. A. Smith, A. C. Simmonett,
    A. E. DePrince III, E. G. Hohenstein, U. Bozkaya, A. Yu. Sokolov,
    R. Di Remigio, R. M. Richard, J. F. Gonthier, A. M. James,
    H. R. McAlexander, A. Kumar, M. Saitow, X. Wang, B. P. Pritchard,
    P. Verma, H. F. Schaefer III, K. Patkowski, R. A. King, E. F. Valeev,
    F. A. Evangelista, J. M. Turney, T. D. Crawford, and C. D. Sherrill,
    J. Chem. Theory Comput. 13(7) pp 3185--3197 (2017).
    (doi: 10.1021/acs.jctc.7b00174)


                         Additional Contributions by
    P. Kraus, H. Kruse, M. H. Lechner, M. C. Schieber, R. A. Shaw,
    A. Alenaizan, R. Galvelis, Z. L. Glick, S. Lehtola, and J. P. Misiewicz

    -----------------------------------------------------------------------


    Psi4 started on: Tuesday, 10 September 2019 12:35PM

    Process ID: 51511
    Host:       node51.bme.utexas.edu
    PSIDATADIR: /home/xy3866/psi4conda/share/psi4
    Memory:     500.0 MiB
    Threads:    4
    
  ==> Input File <==

--------------------------------------------------------------------------
#psi4
#
memory 32 gb

molecule  {
0 1
  C        2.0083120    -0.3372920     0.0000040
  H        3.1030340    -0.4288200    -0.0000030
  O        1.2864570    -1.3299810     0.0000000
  N        1.5810970     0.9343630     0.0000010
  H        0.5827550     1.1459700     0.0000010
  H        2.1087903     1.6984599    -0.0000030
--
0 1
  C       -2.1516897     0.3570729     0.0000010
  H       -3.2464117     0.4486009    -0.0000010
  O       -1.4298347     1.3497619    -0.0000000
  N       -1.7244747    -0.9145821    -0.0000000
  H       -0.7261327    -1.1261891    -0.0000000
  H       -2.3955457    -1.6588981    -0.0000010
units angstrom
no_reorient  #important for SAPT in psi4, default
symmetry c1  #important for SAPT in psi4, default
}

set {
basis aug-cc-pVTZ
scf_type DF
freeze_core True
}
energy('sapt2+')
--------------------------------------------------------------------------

  Memory set to  29.802 GiB by Python driver.

  //>>>>>>>>>>>>>>>>>>>>>>>>>>>>>>>>>>>//
  //              Dimer HF             //
  //<<<<<<<<<<<<<<<<<<<<<<<<<<<<<<<<<<<//


*** tstart() called on node51.bme.utexas.edu
*** at Tue Sep 10 12:35:42 2019

   => Loading Basis Set <=

    Name: AUG-CC-PVTZ
    Role: ORBITAL
    Keyword: BASIS
    atoms 1, 7             entry C          line   235 file /home/xy3866/psi4conda/share/psi4/basis/aug-cc-pvtz.gbs 
    atoms 2, 5-6, 8, 11-12 entry H          line    36 file /home/xy3866/psi4conda/share/psi4/basis/aug-cc-pvtz.gbs 
    atoms 3, 9             entry O          line   327 file /home/xy3866/psi4conda/share/psi4/basis/aug-cc-pvtz.gbs 
    atoms 4, 10            entry N          line   281 file /home/xy3866/psi4conda/share/psi4/basis/aug-cc-pvtz.gbs 


         ---------------------------------------------------------
                                   SCF
               by Justin Turney, Rob Parrish, Andy Simmonett
                          and Daniel G. A. Smith
                              RHF Reference
                        4 Threads,  30517 MiB Core
         ---------------------------------------------------------

  ==> Geometry <==

    Molecular point group: c1
    Full point group: C1

    Geometry (in Angstrom), charge = 0, multiplicity = 1:

       Center              X                  Y                   Z               Mass       
    ------------   -----------------  -----------------  -----------------  -----------------
         C            2.081605636064    -0.347403852022     0.000003256485    12.000000000000
         H            3.176327636064    -0.438931852022    -0.000003743515     1.007825032230
         O            1.359750636064    -1.340092852022    -0.000000743515    15.994914619570
         N            1.654390636064     0.924251147978     0.000000256485    14.003074004430
         H            0.656048636064     1.135858147978     0.000000256485     1.007825032230
         H            2.182083936064     1.688348047978    -0.000003743515     1.007825032230
         C           -2.078396063936     0.346961047978     0.000000256485    12.000000000000
         H           -3.173118063936     0.438489047978    -0.000001743515     1.007825032230
         O           -1.356541063936     1.339650047978    -0.000000743515    15.994914619570
         N           -1.651181063936    -0.924693952022    -0.000000743515    14.003074004430
         H           -0.652839063936    -1.136300952022    -0.000000743515     1.007825032230
         H           -2.322252063936    -1.669009952022    -0.000001743515     1.007825032230

  Running in c1 symmetry.

  Rotational constants: A =      0.18924  B =      0.06139  C =      0.04635 [cm^-1]
  Rotational constants: A =   5673.34941  B =   1840.37514  C =   1389.60261 [MHz]
  Nuclear repulsion =  227.097398506630469

  Charge       = 0
  Multiplicity = 1
  Electrons    = 48
  Nalpha       = 24
  Nbeta        = 24

  ==> Algorithm <==

  SCF Algorithm Type is DF.
  DIIS enabled.
  MOM disabled.
  Fractional occupation disabled.
  Guess Type is SAD.
  Energy threshold   = 1.00e-08
  Density threshold  = 1.00e-08
  Integral threshold = 0.00e+00

  ==> Primary Basis <==

  Basis Set: AUG-CC-PVTZ
    Blend: AUG-CC-PVTZ
    Number of shells: 138
    Number of basis function: 414
    Number of Cartesian functions: 480
    Spherical Harmonics?: true
    Max angular momentum: 3

   => Loading Basis Set <=

    Name: (AUG-CC-PVTZ AUX)
    Role: JKFIT
    Keyword: DF_BASIS_SCF
    atoms 1, 7             entry C          line   162 file /home/xy3866/psi4conda/share/psi4/basis/aug-cc-pvtz-jkfit.gbs 
    atoms 2, 5-6, 8, 11-12 entry H          line    70 file /home/xy3866/psi4conda/share/psi4/basis/aug-cc-pvtz-jkfit.gbs 
    atoms 3, 9             entry O          line   286 file /home/xy3866/psi4conda/share/psi4/basis/aug-cc-pvtz-jkfit.gbs 
    atoms 4, 10            entry N          line   224 file /home/xy3866/psi4conda/share/psi4/basis/aug-cc-pvtz-jkfit.gbs 

  ==> Pre-Iterations <==

   -------------------------------------------------------
    Irrep   Nso     Nmo     Nalpha   Nbeta   Ndocc  Nsocc
   -------------------------------------------------------
     A        414     414       0       0       0       0
   -------------------------------------------------------
    Total     414     414      24      24      24       0
   -------------------------------------------------------

  ==> Integral Setup <==

  ==> DiskDFJK: Density-Fitted J/K Matrices <==

    J tasked:                  Yes
    K tasked:                  Yes
    wK tasked:                  No
    OpenMP threads:              4
    Integrals threads:           4
    Memory [MiB]:            22888
    Algorithm:                Core
    Integral Cache:           SAVE
    Schwarz Cutoff:          1E-12
    Fitting Condition:       1E-10

   => Auxiliary Basis Set <=

  Basis Set: (AUG-CC-PVTZ AUX)
    Blend: AUG-CC-PVTZ-JKFIT
    Number of shells: 264
    Number of basis function: 900
    Number of Cartesian functions: 1116
    Spherical Harmonics?: true
    Max angular momentum: 4

  Minimum eigenvalue in the overlap matrix is 3.2998558297E-05.
  Using Symmetric Orthogonalization.

  SCF Guess: Superposition of Atomic Densities via on-the-fly atomic UHF.

  ==> Iterations <==

                           Total Energy        Delta E     RMS |[F,P]|

   @DF-RHF iter SAD:  -336.59566053040766   -3.36596e+02   0.00000e+00 
   @DF-RHF iter   1:  -337.80187880604160   -1.20622e+00   1.75694e-03 DIIS
   @DF-RHF iter   2:  -337.95053993768795   -1.48661e-01   1.09735e-03 DIIS
   @DF-RHF iter   3:  -338.01754227179572   -6.70023e-02   1.66382e-04 DIIS
   @DF-RHF iter   4:  -338.01994395811602   -2.40169e-03   7.15077e-05 DIIS
   @DF-RHF iter   5:  -338.02041908293944   -4.75125e-04   1.37369e-05 DIIS
   @DF-RHF iter   6:  -338.02046122624256   -4.21433e-05   6.43275e-06 DIIS
   @DF-RHF iter   7:  -338.02047037495214   -9.14871e-06   2.51295e-06 DIIS
   @DF-RHF iter   8:  -338.02047216806284   -1.79311e-06   8.04578e-07 DIIS
   @DF-RHF iter   9:  -338.02047234171215   -1.73649e-07   2.62984e-07 DIIS
   @DF-RHF iter  10:  -338.02047235554107   -1.38289e-08   1.29430e-07 DIIS
   @DF-RHF iter  11:  -338.02047235794521   -2.40414e-09   3.84559e-08 DIIS
   @DF-RHF iter  12:  -338.02047235817645   -2.31239e-10   1.01809e-08 DIIS
   @DF-RHF iter  13:  -338.02047235819123   -1.47793e-11   3.05661e-09 DIIS
  Energy and wave function converged.


  ==> Post-Iterations <==

    Orbital Energies [Eh]
    ---------------------

    Doubly Occupied:                                                      

       1A    -20.531964     2A    -20.530033     3A    -15.585064  
       4A    -15.577118     5A    -11.360099     6A    -11.356920  
       7A     -1.384903     8A     -1.381351     9A     -1.226495  
      10A     -1.216078    11A     -0.864975    12A     -0.844984  
      13A     -0.761833    14A     -0.745512    15A     -0.695303  
      16A     -0.652267    17A     -0.616428    18A     -0.597673  
      19A     -0.574241    20A     -0.568419    21A     -0.452627  
      22A     -0.432219    23A     -0.422336    24A     -0.414781  

    Virtual:                                                              

      25A      0.027049    26A      0.030506    27A      0.043146  
      28A      0.049556    29A      0.061775    30A      0.075798  
      31A      0.086000    32A      0.088345    33A      0.099645  
      34A      0.109083    35A      0.131008    36A      0.133762  
      37A      0.136400    38A      0.137323    39A      0.138152  
      40A      0.146813    41A      0.152057    42A      0.160026  
      43A      0.180079    44A      0.182305    45A      0.187290  
      46A      0.203812    47A      0.221654    48A      0.226284  
      49A      0.231374    50A      0.254010    51A      0.258045  
      52A      0.259343    53A      0.268928    54A      0.270628  
      55A      0.273082    56A      0.290223    57A      0.296038  
      58A      0.298032    59A      0.313400    60A      0.318782  
      61A      0.319131    62A      0.335158    63A      0.337576  
      64A      0.339755    65A      0.351658    66A      0.366393  
      67A      0.370577    68A      0.381695    69A      0.394219  
      70A      0.396963    71A      0.408180    72A      0.408916  
      73A      0.410794    74A      0.430269    75A      0.430854  
      76A      0.436574    77A      0.441874    78A      0.444029  
      79A      0.472757    80A      0.485839    81A      0.501827  
      82A      0.518093    83A      0.528792    84A      0.535733  
      85A      0.535918    86A      0.546170    87A      0.557432  
      88A      0.573199    89A      0.573499    90A      0.586707  
      91A      0.588949    92A      0.595125    93A      0.616233  
      94A      0.623987    95A      0.638438    96A      0.645300  
      97A      0.657717    98A      0.675769    99A      0.687309  
     100A      0.692388   101A      0.714299   102A      0.722167  
     103A      0.731432   104A      0.737334   105A      0.737562  
     106A      0.768828   107A      0.788106   108A      0.803200  
     109A      0.821143   110A      0.832167   111A      0.837898  
     112A      0.845129   113A      0.868155   114A      0.873486  
     115A      0.875268   116A      0.877554   117A      0.891010  
     118A      0.912084   119A      0.917767   120A      0.920137  
     121A      0.922650   122A      0.927873   123A      0.928551  
     124A      0.948757   125A      0.960505   126A      0.962075  
     127A      0.973335   128A      0.976353   129A      0.988897  
     130A      0.991907   131A      1.000582   132A      1.029015  
     133A      1.039263   134A      1.040461   135A      1.049415  
     136A      1.071696   137A      1.074446   138A      1.088586  
     139A      1.088967   140A      1.103581   141A      1.111153  
     142A      1.114072   143A      1.118134   144A      1.131554  
     145A      1.137548   146A      1.137819   147A      1.150182  
     148A      1.172040   149A      1.186384   150A      1.199845  
     151A      1.213892   152A      1.232600   153A      1.259641  
     154A      1.259673   155A      1.264837   156A      1.267476  
     157A      1.277011   158A      1.279834   159A      1.311969  
     160A      1.321055   161A      1.328619   162A      1.356966  
     163A      1.359359   164A      1.372922   165A      1.377616  
     166A      1.390509   167A      1.399421   168A      1.406268  
     169A      1.426386   170A      1.441600   171A      1.446719  
     172A      1.455749   173A      1.461050   174A      1.464847  
     175A      1.475363   176A      1.520597   177A      1.522797  
     178A      1.523939   179A      1.559230   180A      1.571978  
     181A      1.586002   182A      1.591369   183A      1.605263  
     184A      1.642228   185A      1.643096   186A      1.659523  
     187A      1.689096   188A      1.710291   189A      1.722049  
     190A      1.730312   191A      1.750272   192A      1.756003  
     193A      1.777863   194A      1.787277   195A      1.823323  
     196A      1.864292   197A      1.903295   198A      1.905935  
     199A      1.921061   200A      1.960209   201A      1.994614  
     202A      1.995318   203A      2.038050   204A      2.045821  
     205A      2.062078   206A      2.077069   207A      2.085955  
     208A      2.114041   209A      2.139734   210A      2.143740  
     211A      2.149993   212A      2.161863   213A      2.168364  
     214A      2.195552   215A      2.199916   216A      2.225150  
     217A      2.232982   218A      2.280762   219A      2.311601  
     220A      2.348815   221A      2.364331   222A      2.385803  
     223A      2.413170   224A      2.422581   225A      2.423290  
     226A      2.428053   227A      2.438933   228A      2.486322  
     229A      2.503104   230A      2.527387   231A      2.542118  
     232A      2.545715   233A      2.567513   234A      2.577613  
     235A      2.600216   236A      2.600724   237A      2.640732  
     238A      2.648672   239A      2.667843   240A      2.680149  
     241A      2.694175   242A      2.703221   243A      2.715384  
     244A      2.724347   245A      2.745893   246A      2.781306  
     247A      2.802944   248A      2.822569   249A      2.826565  
     250A      2.829823   251A      2.901980   252A      2.914774  
     253A      2.925588   254A      2.954640   255A      2.968082  
     256A      3.011556   257A      3.046411   258A      3.115442  
     259A      3.149941   260A      3.185381   261A      3.185610  
     262A      3.186660   263A      3.214310   264A      3.253303  
     265A      3.371374   266A      3.383447   267A      3.388917  
     268A      3.432580   269A      3.442158   270A      3.487496  
     271A      3.554416   272A      3.568353   273A      3.579636  
     274A      3.624752   275A      3.638564   276A      3.704488  
     277A      3.708182   278A      3.730315   279A      3.789243  
     280A      3.804438   281A      3.824474   282A      3.849033  
     283A      3.899589   284A      3.905674   285A      4.054800  
     286A      4.060964   287A      4.073547   288A      4.073940  
     289A      4.096457   290A      4.119819   291A      4.134144  
     292A      4.155302   293A      4.172047   294A      4.180058  
     295A      4.188546   296A      4.194162   297A      4.198466  
     298A      4.201441   299A      4.229735   300A      4.277820  
     301A      4.327176   302A      4.356921   303A      4.362114  
     304A      4.377926   305A      4.379980   306A      4.404574  
     307A      4.406926   308A      4.424680   309A      4.441097  
     310A      4.443319   311A      4.493066   312A      4.510056  
     313A      4.523052   314A      4.544042   315A      4.608860  
     316A      4.644508   317A      4.685432   318A      4.691502  
     319A      4.716796   320A      4.741767   321A      4.770326  
     322A      4.806596   323A      4.838977   324A      4.842584  
     325A      4.878747   326A      4.888869   327A      4.907126  
     328A      4.921115   329A      4.925061   330A      4.935574  
     331A      4.969292   332A      5.018073   333A      5.072057  
     334A      5.082023   335A      5.109210   336A      5.175622  
     337A      5.175980   338A      5.202111   339A      5.223274  
     340A      5.231657   341A      5.244515   342A      5.249137  
     343A      5.279920   344A      5.295002   345A      5.351699  
     346A      5.420890   347A      5.447455   348A      5.499295  
     349A      5.547701   350A      5.554807   351A      5.568822  
     352A      5.577888   353A      5.651047   354A      5.661990  
     355A      5.671681   356A      5.692277   357A      5.749133  
     358A      5.751918   359A      5.828098   360A      5.848018  
     361A      5.871977   362A      5.887989   363A      6.053764  
     364A      6.070296   365A      6.080008   366A      6.128866  
     367A      6.190473   368A      6.341420   369A      6.366231  
     370A      6.394459   371A      6.444105   372A      6.454552  
     373A      6.501140   374A      6.530387   375A      6.596639  
     376A      6.640431   377A      6.819571   378A      6.829750  
     379A      6.889800   380A      6.922863   381A      6.926347  
     382A      6.986763   383A      7.009380   384A      7.015336  
     385A      7.088540   386A      7.153669   387A      7.158690  
     388A      7.196501   389A      7.208680   390A      7.253232  
     391A      7.307602   392A      7.318906   393A      7.325152  
     394A      7.381161   395A      7.418618   396A      7.441262  
     397A      7.623213   398A      7.626672   399A      7.657645  
     400A      7.680378   401A      7.760243   402A      7.788303  
     403A      7.918727   404A      7.959270   405A      7.975114  
     406A      8.046606   407A      8.081519   408A      8.211385  
     409A     15.665373   410A     15.926465   411A     17.595882  
     412A     17.888909   413A     18.772353   414A     19.549031  

    Final Occupation by Irrep:
              A 
    DOCC [    24 ]

  @DF-RHF Final Energy:  -338.02047235819123

   => Energetics <=

    Nuclear Repulsion Energy =            227.0973985066304692
    One-Electron Energy =                -912.6484961520498018
    Two-Electron Energy =                 347.5306252872280766
    Total Energy =                       -338.0204723581912276

Computation Completed


Properties will be evaluated at   0.000000,   0.000000,   0.000000 [a0]

Properties computed using the SCF density matrix

  Nuclear Dipole Moment: [e a0]
     X:    -0.1254      Y:     0.0173      Z:    -0.0000

  Electronic Dipole Moment: [e a0]
     X:     0.0888      Y:    -0.0176      Z:     0.0000

  Dipole Moment: [e a0]
     X:    -0.0365      Y:    -0.0003      Z:    -0.0000     Total:     0.0365

  Dipole Moment: [D]
     X:    -0.0929      Y:    -0.0007      Z:    -0.0000     Total:     0.0929


*** tstop() called on node51.bme.utexas.edu at Tue Sep 10 12:36:05 2019
Module time:
	user time   =      83.81 seconds =       1.40 minutes
	system time =       1.94 seconds =       0.03 minutes
	total time  =         23 seconds =       0.38 minutes
Total time:
	user time   =      83.81 seconds =       1.40 minutes
	system time =       1.94 seconds =       0.03 minutes
	total time  =         23 seconds =       0.38 minutes

  //>>>>>>>>>>>>>>>>>>>>>>>>>>>>>>>>>>>//
  //            Monomer A HF           //
  //<<<<<<<<<<<<<<<<<<<<<<<<<<<<<<<<<<<//


*** tstart() called on node51.bme.utexas.edu
*** at Tue Sep 10 12:36:05 2019

   => Loading Basis Set <=

    Name: AUG-CC-PVTZ
    Role: ORBITAL
    Keyword: BASIS
    atoms 1, 7             entry C          line   235 file /home/xy3866/psi4conda/share/psi4/basis/aug-cc-pvtz.gbs 
    atoms 2, 5-6, 8, 11-12 entry H          line    36 file /home/xy3866/psi4conda/share/psi4/basis/aug-cc-pvtz.gbs 
    atoms 3, 9             entry O          line   327 file /home/xy3866/psi4conda/share/psi4/basis/aug-cc-pvtz.gbs 
    atoms 4, 10            entry N          line   281 file /home/xy3866/psi4conda/share/psi4/basis/aug-cc-pvtz.gbs 


         ---------------------------------------------------------
                                   SCF
               by Justin Turney, Rob Parrish, Andy Simmonett
                          and Daniel G. A. Smith
                              RHF Reference
                        4 Threads,  30517 MiB Core
         ---------------------------------------------------------

  ==> Geometry <==

    Molecular point group: c1
    Full point group: C1

    Geometry (in Angstrom), charge = 0, multiplicity = 1:

       Center              X                  Y                   Z               Mass       
    ------------   -----------------  -----------------  -----------------  -----------------
         C            2.081605636064    -0.347403852022     0.000003256485    12.000000000000
         H            3.176327636064    -0.438931852022    -0.000003743515     1.007825032230
         O            1.359750636064    -1.340092852022    -0.000000743515    15.994914619570
         N            1.654390636064     0.924251147978     0.000000256485    14.003074004430
         H            0.656048636064     1.135858147978     0.000000256485     1.007825032230
         H            2.182083936064     1.688348047978    -0.000003743515     1.007825032230
      Gh(C)          -2.078396063936     0.346961047978     0.000000256485    12.000000000000
      Gh(H)          -3.173118063936     0.438489047978    -0.000001743515     1.007825032230
      Gh(O)          -1.356541063936     1.339650047978    -0.000000743515    15.994914619570
      Gh(N)          -1.651181063936    -0.924693952022    -0.000000743515    14.003074004430
      Gh(H)          -0.652839063936    -1.136300952022    -0.000000743515     1.007825032230
      Gh(H)          -2.322252063936    -1.669009952022    -0.000001743515     1.007825032230

  Running in c1 symmetry.

  Rotational constants: A =      0.18924  B =      0.06139  C =      0.04635 [cm^-1]
  Rotational constants: A =   5673.34941  B =   1840.37514  C =   1389.60261 [MHz]
  Nuclear repulsion =   71.474015499849330

  Charge       = 0
  Multiplicity = 1
  Electrons    = 24
  Nalpha       = 12
  Nbeta        = 12

  ==> Algorithm <==

  SCF Algorithm Type is DF.
  DIIS enabled.
  MOM disabled.
  Fractional occupation disabled.
  Guess Type is SAD.
  Energy threshold   = 1.00e-08
  Density threshold  = 1.00e-08
  Integral threshold = 0.00e+00

  ==> Primary Basis <==

  Basis Set: AUG-CC-PVTZ
    Blend: AUG-CC-PVTZ
    Number of shells: 138
    Number of basis function: 414
    Number of Cartesian functions: 480
    Spherical Harmonics?: true
    Max angular momentum: 3

   => Loading Basis Set <=

    Name: (AUG-CC-PVTZ AUX)
    Role: JKFIT
    Keyword: DF_BASIS_SCF
    atoms 1, 7             entry C          line   162 file /home/xy3866/psi4conda/share/psi4/basis/aug-cc-pvtz-jkfit.gbs 
    atoms 2, 5-6, 8, 11-12 entry H          line    70 file /home/xy3866/psi4conda/share/psi4/basis/aug-cc-pvtz-jkfit.gbs 
    atoms 3, 9             entry O          line   286 file /home/xy3866/psi4conda/share/psi4/basis/aug-cc-pvtz-jkfit.gbs 
    atoms 4, 10            entry N          line   224 file /home/xy3866/psi4conda/share/psi4/basis/aug-cc-pvtz-jkfit.gbs 

  ==> Pre-Iterations <==

   -------------------------------------------------------
    Irrep   Nso     Nmo     Nalpha   Nbeta   Ndocc  Nsocc
   -------------------------------------------------------
     A        414     414       0       0       0       0
   -------------------------------------------------------
    Total     414     414      12      12      12       0
   -------------------------------------------------------

  ==> Integral Setup <==

  ==> DiskDFJK: Density-Fitted J/K Matrices <==

    J tasked:                  Yes
    K tasked:                  Yes
    wK tasked:                  No
    OpenMP threads:              4
    Integrals threads:           4
    Memory [MiB]:            22888
    Algorithm:                Core
    Integral Cache:           LOAD
    Schwarz Cutoff:          1E-12
    Fitting Condition:       1E-10

   => Auxiliary Basis Set <=

  Basis Set: (AUG-CC-PVTZ AUX)
    Blend: AUG-CC-PVTZ-JKFIT
    Number of shells: 264
    Number of basis function: 900
    Number of Cartesian functions: 1116
    Spherical Harmonics?: true
    Max angular momentum: 4

  Minimum eigenvalue in the overlap matrix is 3.2998558297E-05.
  Using Symmetric Orthogonalization.

  SCF Guess: Superposition of Atomic Densities via on-the-fly atomic UHF.

  ==> Iterations <==

                           Total Energy        Delta E     RMS |[F,P]|

   @DF-RHF iter SAD:  -168.23087650238790   -1.68231e+02   0.00000e+00 
   @DF-RHF iter   1:  -168.87447342812098   -6.43597e-01   1.30574e-03 DIIS
   @DF-RHF iter   2:  -168.95405092237007   -7.95775e-02   8.71862e-04 DIIS
   @DF-RHF iter   3:  -168.99625015786887   -4.21992e-02   1.28102e-04 DIIS
   @DF-RHF iter   4:  -168.99764582396369   -1.39567e-03   5.43517e-05 DIIS
   @DF-RHF iter   5:  -168.99793437257799   -2.88549e-04   1.02313e-05 DIIS
   @DF-RHF iter   6:  -168.99795893856759   -2.45660e-05   4.72186e-06 DIIS
   @DF-RHF iter   7:  -168.99796404940315   -5.11084e-06   1.95106e-06 DIIS
   @DF-RHF iter   8:  -168.99796501244887   -9.63046e-07   5.97271e-07 DIIS
   @DF-RHF iter   9:  -168.99796510510558   -9.26567e-08   1.62914e-07 DIIS
   @DF-RHF iter  10:  -168.99796511202530   -6.91972e-09   4.14460e-08 DIIS
   @DF-RHF iter  11:  -168.99796511238893   -3.63627e-10   7.62461e-09 DIIS
  Energy and wave function converged.


  ==> Post-Iterations <==

    Orbital Energies [Eh]
    ---------------------

    Doubly Occupied:                                                      

       1A    -20.528606     2A    -15.594668     3A    -11.359553  
       4A     -1.378603     5A     -1.237495     6A     -0.869298  
       7A     -0.769538     8A     -0.675092     9A     -0.605959  
      10A     -0.573190    11A     -0.437268    12A     -0.423842  

    Virtual:                                                              

      13A      0.018471    14A      0.029580    15A      0.039709  
      16A      0.054798    17A      0.056656    18A      0.069420  
      19A      0.086356    20A      0.086455    21A      0.088891  
      22A      0.096526    23A      0.109109    24A      0.125045  
      25A      0.128204    26A      0.134154    27A      0.137535  
      28A      0.145214    29A      0.151731    30A      0.157930  
      31A      0.175379    32A      0.177914    33A      0.193860  
      34A      0.199403    35A      0.204016    36A      0.216462  
      37A      0.223307    38A      0.247747    39A      0.249915  
      40A      0.256519    41A      0.259216    42A      0.267327  
      43A      0.280950    44A      0.289129    45A      0.299371  
      46A      0.303298    47A      0.308335    48A      0.314872  
      49A      0.326569    50A      0.331877    51A      0.342312  
      52A      0.350513    53A      0.355853    54A      0.360879  
      55A      0.374436    56A      0.382756    57A      0.384448  
      58A      0.395060    59A      0.398583    60A      0.399241  
      61A      0.406934    62A      0.419696    63A      0.429398  
      64A      0.443865    65A      0.449247    66A      0.449332  
      67A      0.468689    68A      0.494459    69A      0.498360  
      70A      0.503320    71A      0.521368    72A      0.533235  
      73A      0.534018    74A      0.544376    75A      0.553163  
      76A      0.563386    77A      0.566529    78A      0.580985  
      79A      0.613199    80A      0.618997    81A      0.635462  
      82A      0.646216    83A      0.656720    84A      0.659345  
      85A      0.666355    86A      0.690754    87A      0.704295  
      88A      0.725731    89A      0.726335    90A      0.740139  
      91A      0.749262    92A      0.751034    93A      0.754256  
      94A      0.789424    95A      0.808933    96A      0.811508  
      97A      0.832787    98A      0.835565    99A      0.855438  
     100A      0.857124   101A      0.863338   102A      0.878337  
     103A      0.883233   104A      0.896739   105A      0.904927  
     106A      0.905340   107A      0.918403   108A      0.919429  
     109A      0.929559   110A      0.931415   111A      0.940658  
     112A      0.953781   113A      0.962631   114A      0.981311  
     115A      0.986935   116A      1.002706   117A      1.006914  
     118A      1.011534   119A      1.021047   120A      1.037458  
     121A      1.054632   122A      1.059692   123A      1.068849  
     124A      1.069222   125A      1.079175   126A      1.088465  
     127A      1.100607   128A      1.103156   129A      1.119370  
     130A      1.119451   131A      1.130369   132A      1.149853  
     133A      1.150718   134A      1.164636   135A      1.166934  
     136A      1.187416   137A      1.204422   138A      1.214254  
     139A      1.246721   140A      1.247102   141A      1.261384  
     142A      1.270724   143A      1.282372   144A      1.286655  
     145A      1.310057   146A      1.321330   147A      1.340387  
     148A      1.350175   149A      1.366203   150A      1.371926  
     151A      1.394751   152A      1.403870   153A      1.414353  
     154A      1.426225   155A      1.442301   156A      1.448684  
     157A      1.461813   158A      1.479879   159A      1.494060  
     160A      1.514780   161A      1.522048   162A      1.559192  
     163A      1.572850   164A      1.594462   165A      1.614247  
     166A      1.622305   167A      1.622978   168A      1.635880  
     169A      1.656124   170A      1.667123   171A      1.680450  
     172A      1.681925   173A      1.692968   174A      1.709396  
     175A      1.716824   176A      1.738720   177A      1.741499  
     178A      1.765479   179A      1.783271   180A      1.817376  
     181A      1.819201   182A      1.825783   183A      1.870425  
     184A      1.877790   185A      1.893717   186A      1.917355  
     187A      1.930897   188A      1.966443   189A      1.966516  
     190A      1.994023   191A      2.021484   192A      2.024210  
     193A      2.042696   194A      2.079036   195A      2.111206  
     196A      2.120986   197A      2.132527   198A      2.150787  
     199A      2.171467   200A      2.198741   201A      2.221445  
     202A      2.244483   203A      2.257732   204A      2.302307  
     205A      2.321885   206A      2.340254   207A      2.344142  
     208A      2.374175   209A      2.385022   210A      2.432846  
     211A      2.437276   212A      2.448070   213A      2.469042  
     214A      2.502024   215A      2.508061   216A      2.530490  
     217A      2.545624   218A      2.566934   219A      2.605398  
     220A      2.625931   221A      2.629634   222A      2.662023  
     223A      2.671727   224A      2.676390   225A      2.692313  
     226A      2.698337   227A      2.722292   228A      2.742957  
     229A      2.744214   230A      2.765538   231A      2.766527  
     232A      2.813523   233A      2.828134   234A      2.846789  
     235A      2.875676   236A      2.886058   237A      2.925834  
     238A      2.929921   239A      2.932554   240A      2.956188  
     241A      2.989032   242A      3.001945   243A      3.010296  
     244A      3.044400   245A      3.114404   246A      3.143680  
     247A      3.191153   248A      3.203710   249A      3.216626  
     250A      3.223068   251A      3.258174   252A      3.307940  
     253A      3.339508   254A      3.355127   255A      3.416004  
     256A      3.423303   257A      3.460945   258A      3.509577  
     259A      3.547845   260A      3.565266   261A      3.583908  
     262A      3.612785   263A      3.708456   264A      3.722843  
     265A      3.775366   266A      3.825489   267A      3.842652  
     268A      3.857590   269A      3.911711   270A      3.970326  
     271A      4.061026   272A      4.061784   273A      4.086389  
     274A      4.103129   275A      4.114979   276A      4.135026  
     277A      4.145184   278A      4.162478   279A      4.178092  
     280A      4.187391   281A      4.193739   282A      4.243017  
     283A      4.345444   284A      4.354656   285A      4.385978  
     286A      4.405660   287A      4.422894   288A      4.451008  
     289A      4.488765   290A      4.510490   291A      4.531698  
     292A      4.544537   293A      4.573171   294A      4.615627  
     295A      4.638889   296A      4.695951   297A      4.702295  
     298A      4.724155   299A      4.757497   300A      4.783462  
     301A      4.791511   302A      4.819283   303A      4.849433  
     304A      4.873756   305A      4.887342   306A      4.918753  
     307A      4.920896   308A      4.967544   309A      4.981854  
     310A      5.003916   311A      5.009921   312A      5.031399  
     313A      5.039088   314A      5.110419   315A      5.141036  
     316A      5.148841   317A      5.187767   318A      5.200134  
     319A      5.223648   320A      5.234637   321A      5.255351  
     322A      5.295371   323A      5.295570   324A      5.308666  
     325A      5.358371   326A      5.386106   327A      5.395759  
     328A      5.423620   329A      5.460258   330A      5.466252  
     331A      5.539752   332A      5.545272   333A      5.578717  
     334A      5.650969   335A      5.681644   336A      5.705558  
     337A      5.736793   338A      5.803303   339A      5.830908  
     340A      5.831689   341A      5.905893   342A      5.914213  
     343A      5.972305   344A      6.053754   345A      6.103298  
     346A      6.130019   347A      6.211673   348A      6.315438  
     349A      6.422743   350A      6.427737   351A      6.445420  
     352A      6.543560   353A      6.596026   354A      6.599652  
     355A      6.605892   356A      6.682065   357A      6.692115  
     358A      6.708491   359A      6.787713   360A      6.838009  
     361A      6.879761   362A      6.921139   363A      6.986162  
     364A      7.044692   365A      7.087762   366A      7.162100  
     367A      7.209031   368A      7.223517   369A      7.330605  
     370A      7.337225   371A      7.345366   372A      7.401232  
     373A      7.493412   374A      7.627740   375A      7.639551  
     376A      7.689025   377A      7.705980   378A      7.706661  
     379A      7.737771   380A      7.749268   381A      7.809653  
     382A      7.891958   383A      7.932695   384A      7.945720  
     385A      7.994834   386A      8.051742   387A      8.110920  
     388A      8.148730   389A      8.243028   390A      8.445635  
     391A      8.662830   392A      8.742192   393A      9.135140  
     394A      9.337774   395A      9.489158   396A      9.800386  
     397A      9.863923   398A     10.074698   399A     10.105281  
     400A     10.421149   401A     10.619549   402A     11.183732  
     403A     11.701355   404A     11.864887   405A     12.419443  
     406A     12.617820   407A     12.921691   408A     13.983763  
     409A     15.830825   410A     17.834981   411A     19.532067  
     412A     51.229654   413A     61.736646   414A     66.753455  

    Final Occupation by Irrep:
              A 
    DOCC [    12 ]

  @DF-RHF Final Energy:  -168.99796511238893

   => Energetics <=

    Nuclear Repulsion Energy =             71.4740154998493296
    One-Electron Energy =                -372.0377345533889297
    Two-Electron Energy =                 131.5657539411506889
    Total Energy =                       -168.9979651123889255

Computation Completed


Properties will be evaluated at   0.000000,   0.000000,   0.000000 [a0]

Properties computed using the SCF density matrix

  Nuclear Dipole Moment: [e a0]
     X:    77.4085      Y:    -7.4647      Z:     0.0000

  Electronic Dipole Moment: [e a0]
     X:   -76.8248      Y:     9.1046      Z:    -0.0000

  Dipole Moment: [e a0]
     X:     0.5838      Y:     1.6399      Z:    -0.0000     Total:     1.7408

  Dipole Moment: [D]
     X:     1.4838      Y:     4.1683      Z:    -0.0000     Total:     4.4246


*** tstop() called on node51.bme.utexas.edu at Tue Sep 10 12:36:19 2019
Module time:
	user time   =      50.33 seconds =       0.84 minutes
	system time =       1.20 seconds =       0.02 minutes
	total time  =         14 seconds =       0.23 minutes
Total time:
	user time   =     134.17 seconds =       2.24 minutes
	system time =       3.14 seconds =       0.05 minutes
	total time  =         37 seconds =       0.62 minutes

  //>>>>>>>>>>>>>>>>>>>>>>>>>>>>>>>>>>>//
  //            Monomer B HF           //
  //<<<<<<<<<<<<<<<<<<<<<<<<<<<<<<<<<<<//


*** tstart() called on node51.bme.utexas.edu
*** at Tue Sep 10 12:36:19 2019

   => Loading Basis Set <=

    Name: AUG-CC-PVTZ
    Role: ORBITAL
    Keyword: BASIS
    atoms 1, 7             entry C          line   235 file /home/xy3866/psi4conda/share/psi4/basis/aug-cc-pvtz.gbs 
    atoms 2, 5-6, 8, 11-12 entry H          line    36 file /home/xy3866/psi4conda/share/psi4/basis/aug-cc-pvtz.gbs 
    atoms 3, 9             entry O          line   327 file /home/xy3866/psi4conda/share/psi4/basis/aug-cc-pvtz.gbs 
    atoms 4, 10            entry N          line   281 file /home/xy3866/psi4conda/share/psi4/basis/aug-cc-pvtz.gbs 


         ---------------------------------------------------------
                                   SCF
               by Justin Turney, Rob Parrish, Andy Simmonett
                          and Daniel G. A. Smith
                              RHF Reference
                        4 Threads,  30517 MiB Core
         ---------------------------------------------------------

  ==> Geometry <==

    Molecular point group: c1
    Full point group: C1

    Geometry (in Angstrom), charge = 0, multiplicity = 1:

       Center              X                  Y                   Z               Mass       
    ------------   -----------------  -----------------  -----------------  -----------------
      Gh(C)           2.081605636064    -0.347403852022     0.000003256485    12.000000000000
      Gh(H)           3.176327636064    -0.438931852022    -0.000003743515     1.007825032230
      Gh(O)           1.359750636064    -1.340092852022    -0.000000743515    15.994914619570
      Gh(N)           1.654390636064     0.924251147978     0.000000256485    14.003074004430
      Gh(H)           0.656048636064     1.135858147978     0.000000256485     1.007825032230
      Gh(H)           2.182083936064     1.688348047978    -0.000003743515     1.007825032230
         C           -2.078396063936     0.346961047978     0.000000256485    12.000000000000
         H           -3.173118063936     0.438489047978    -0.000001743515     1.007825032230
         O           -1.356541063936     1.339650047978    -0.000000743515    15.994914619570
         N           -1.651181063936    -0.924693952022    -0.000000743515    14.003074004430
         H           -0.652839063936    -1.136300952022    -0.000000743515     1.007825032230
         H           -2.322252063936    -1.669009952022    -0.000001743515     1.007825032230

  Running in c1 symmetry.

  Rotational constants: A =      0.18924  B =      0.06139  C =      0.04635 [cm^-1]
  Rotational constants: A =   5673.34941  B =   1840.37514  C =   1389.60261 [MHz]
  Nuclear repulsion =   71.161114512123262

  Charge       = 0
  Multiplicity = 1
  Electrons    = 24
  Nalpha       = 12
  Nbeta        = 12

  ==> Algorithm <==

  SCF Algorithm Type is DF.
  DIIS enabled.
  MOM disabled.
  Fractional occupation disabled.
  Guess Type is SAD.
  Energy threshold   = 1.00e-08
  Density threshold  = 1.00e-08
  Integral threshold = 0.00e+00

  ==> Primary Basis <==

  Basis Set: AUG-CC-PVTZ
    Blend: AUG-CC-PVTZ
    Number of shells: 138
    Number of basis function: 414
    Number of Cartesian functions: 480
    Spherical Harmonics?: true
    Max angular momentum: 3

   => Loading Basis Set <=

    Name: (AUG-CC-PVTZ AUX)
    Role: JKFIT
    Keyword: DF_BASIS_SCF
    atoms 1, 7             entry C          line   162 file /home/xy3866/psi4conda/share/psi4/basis/aug-cc-pvtz-jkfit.gbs 
    atoms 2, 5-6, 8, 11-12 entry H          line    70 file /home/xy3866/psi4conda/share/psi4/basis/aug-cc-pvtz-jkfit.gbs 
    atoms 3, 9             entry O          line   286 file /home/xy3866/psi4conda/share/psi4/basis/aug-cc-pvtz-jkfit.gbs 
    atoms 4, 10            entry N          line   224 file /home/xy3866/psi4conda/share/psi4/basis/aug-cc-pvtz-jkfit.gbs 

  ==> Pre-Iterations <==

   -------------------------------------------------------
    Irrep   Nso     Nmo     Nalpha   Nbeta   Ndocc  Nsocc
   -------------------------------------------------------
     A        414     414       0       0       0       0
   -------------------------------------------------------
    Total     414     414      12      12      12       0
   -------------------------------------------------------

  ==> Integral Setup <==

  ==> DiskDFJK: Density-Fitted J/K Matrices <==

    J tasked:                  Yes
    K tasked:                  Yes
    wK tasked:                  No
    OpenMP threads:              4
    Integrals threads:           4
    Memory [MiB]:            22888
    Algorithm:                Core
    Integral Cache:           LOAD
    Schwarz Cutoff:          1E-12
    Fitting Condition:       1E-10

   => Auxiliary Basis Set <=

  Basis Set: (AUG-CC-PVTZ AUX)
    Blend: AUG-CC-PVTZ-JKFIT
    Number of shells: 264
    Number of basis function: 900
    Number of Cartesian functions: 1116
    Spherical Harmonics?: true
    Max angular momentum: 4

  Minimum eigenvalue in the overlap matrix is 3.2998558297E-05.
  Using Symmetric Orthogonalization.

  SCF Guess: Superposition of Atomic Densities via on-the-fly atomic UHF.

  ==> Iterations <==

                           Total Energy        Delta E     RMS |[F,P]|

   @DF-RHF iter SAD:  -168.20327154270166   -1.68203e+02   0.00000e+00 
   @DF-RHF iter   1:  -168.87962908179560   -6.76358e-01   1.29325e-03 DIIS
   @DF-RHF iter   2:  -168.95775890646095   -7.81298e-02   8.83323e-04 DIIS
   @DF-RHF iter   3:  -169.00147979956031   -4.37209e-02   1.26830e-04 DIIS
   @DF-RHF iter   4:  -169.00291992982179   -1.44013e-03   5.48081e-05 DIIS
   @DF-RHF iter   5:  -169.00322332006948   -3.03390e-04   1.09753e-05 DIIS
   @DF-RHF iter   6:  -169.00325332974353   -3.00097e-05   5.23276e-06 DIIS
   @DF-RHF iter   7:  -169.00325963923132   -6.30949e-06   2.10848e-06 DIIS
   @DF-RHF iter   8:  -169.00326074833413   -1.10910e-06   6.36895e-07 DIIS
   @DF-RHF iter   9:  -169.00326085223344   -1.03899e-07   1.75727e-07 DIIS
   @DF-RHF iter  10:  -169.00326086039405   -8.16061e-09   4.34686e-08 DIIS
   @DF-RHF iter  11:  -169.00326086080142   -4.07368e-10   7.78364e-09 DIIS
  Energy and wave function converged.


  ==> Post-Iterations <==

    Orbital Energies [Eh]
    ---------------------

    Doubly Occupied:                                                      

       1A    -20.526941     2A    -15.602093     3A    -11.356551  
       4A     -1.376934     5A     -1.227377     6A     -0.854907  
       7A     -0.756207     8A     -0.677330     9A     -0.603166  
      10A     -0.571946    11A     -0.435225    12A     -0.422133  

    Virtual:                                                              

      13A      0.018526    14A      0.029185    15A      0.039773  
      16A      0.055006    17A      0.056375    18A      0.069464  
      19A      0.086088    20A      0.086357    21A      0.089217  
      22A      0.096381    23A      0.109478    24A      0.124990  
      25A      0.128633    26A      0.133576    27A      0.137312  
      28A      0.145107    29A      0.151841    30A      0.158160  
      31A      0.174195    32A      0.178783    33A      0.194074  
      34A      0.198336    35A      0.202446    36A      0.216608  
      37A      0.223710    38A      0.247771    39A      0.249788  
      40A      0.256020    41A      0.257815    42A      0.268039  
      43A      0.278243    44A      0.289176    45A      0.299431  
      46A      0.302453    47A      0.306979    48A      0.315059  
      49A      0.326848    50A      0.330606    51A      0.346294  
      52A      0.349231    53A      0.353650    54A      0.363043  
      55A      0.372731    56A      0.383875    57A      0.384225  
      58A      0.392399    59A      0.396156    60A      0.398405  
      61A      0.407187    62A      0.420772    63A      0.425900  
      64A      0.445178    65A      0.445533    66A      0.451189  
      67A      0.465914    68A      0.493481    69A      0.495560  
      70A      0.502685    71A      0.519682    72A      0.532154  
      73A      0.534007    74A      0.550758    75A      0.554921  
      76A      0.563480    77A      0.571629    78A      0.582485  
      79A      0.615904    80A      0.621455    81A      0.636124  
      82A      0.643158    83A      0.651146    84A      0.655650  
      85A      0.663703    86A      0.689186    87A      0.704066  
      88A      0.723636    89A      0.728861    90A      0.741220  
      91A      0.749814    92A      0.751201    93A      0.757544  
      94A      0.787708    95A      0.809316    96A      0.811584  
      97A      0.826466    98A      0.835013    99A      0.855897  
     100A      0.859474   101A      0.864201   102A      0.878051  
     103A      0.878153   104A      0.894636   105A      0.901243  
     106A      0.901661   107A      0.917607   108A      0.919649  
     109A      0.931939   110A      0.933410   111A      0.939425  
     112A      0.945485   113A      0.964721   114A      0.981076  
     115A      0.983447   116A      1.004214   117A      1.004287  
     118A      1.013514   119A      1.014948   120A      1.033848  
     121A      1.047793   122A      1.056383   123A      1.064061  
     124A      1.066163   125A      1.079237   126A      1.086096  
     127A      1.093028   128A      1.099966   129A      1.119177  
     130A      1.126783   131A      1.135922   132A      1.151102  
     133A      1.161016   134A      1.162890   135A      1.164828  
     136A      1.190019   137A      1.207321   138A      1.214711  
     139A      1.248451   140A      1.252039   141A      1.263220  
     142A      1.273105   143A      1.285938   144A      1.290726  
     145A      1.309410   146A      1.319482   147A      1.335361  
     148A      1.364270   149A      1.369437   150A      1.372083  
     151A      1.390105   152A      1.403617   153A      1.411459  
     154A      1.415033   155A      1.432758   156A      1.455402  
     157A      1.460880   158A      1.475601   159A      1.495658  
     160A      1.513500   161A      1.519307   162A      1.560345  
     163A      1.571234   164A      1.586495   165A      1.602932  
     166A      1.621351   167A      1.627015   168A      1.635775  
     169A      1.665181   170A      1.670862   171A      1.682703  
     172A      1.688983   173A      1.692979   174A      1.706971  
     175A      1.715130   176A      1.739088   177A      1.741568  
     178A      1.772477   179A      1.776668   180A      1.818500  
     181A      1.819901   182A      1.830926   183A      1.864167  
     184A      1.876627   185A      1.886229   186A      1.916249  
     187A      1.935957   188A      1.969015   189A      1.973714  
     190A      2.004245   191A      2.014719   192A      2.036798  
     193A      2.044300   194A      2.082073   195A      2.088398  
     196A      2.104013   197A      2.112842   198A      2.144666  
     199A      2.166330   200A      2.197954   201A      2.219259  
     202A      2.248431   203A      2.261445   204A      2.291334  
     205A      2.312509   206A      2.344270   207A      2.358932  
     208A      2.371889   209A      2.382677   210A      2.426186  
     211A      2.441854   212A      2.460651   213A      2.472572  
     214A      2.500704   215A      2.504580   216A      2.525284  
     217A      2.544570   218A      2.562390   219A      2.615360  
     220A      2.625222   221A      2.633158   222A      2.638802  
     223A      2.676268   224A      2.677865   225A      2.687297  
     226A      2.728859   227A      2.731926   228A      2.732088  
     229A      2.747612   230A      2.757636   231A      2.772255  
     232A      2.803061   233A      2.827138   234A      2.838172  
     235A      2.890598   236A      2.912687   237A      2.935469  
     238A      2.945922   239A      2.960725   240A      2.970633  
     241A      3.005421   242A      3.018001   243A      3.038640  
     244A      3.062248   245A      3.116133   246A      3.129517  
     247A      3.191423   248A      3.201528   249A      3.206959  
     250A      3.217050   251A      3.272571   252A      3.285591  
     253A      3.322336   254A      3.361506   255A      3.411850  
     256A      3.415791   257A      3.452984   258A      3.489085  
     259A      3.553158   260A      3.566536   261A      3.588473  
     262A      3.603874   263A      3.704339   264A      3.708017  
     265A      3.762122   266A      3.785616   267A      3.828492  
     268A      3.829318   269A      3.891559   270A      3.983272  
     271A      4.057166   272A      4.061378   273A      4.077669  
     274A      4.095737   275A      4.102505   276A      4.111671  
     277A      4.156326   278A      4.156769   279A      4.184664  
     280A      4.188587   281A      4.220266   282A      4.227629  
     283A      4.308471   284A      4.340166   285A      4.370269  
     286A      4.404943   287A      4.421310   288A      4.436915  
     289A      4.492221   290A      4.501364   291A      4.513563  
     292A      4.540812   293A      4.603644   294A      4.655542  
     295A      4.672984   296A      4.686527   297A      4.708881  
     298A      4.720749   299A      4.751839   300A      4.789888  
     301A      4.796832   302A      4.818523   303A      4.844815  
     304A      4.872521   305A      4.880806   306A      4.908791  
     307A      4.939111   308A      4.939922   309A      4.953744  
     310A      4.990319   311A      5.024486   312A      5.032725  
     313A      5.043298   314A      5.076877   315A      5.096474  
     316A      5.112785   317A      5.169696   318A      5.203212  
     319A      5.206317   320A      5.224785   321A      5.250753  
     322A      5.284900   323A      5.294909   324A      5.313801  
     325A      5.353395   326A      5.371660   327A      5.409052  
     328A      5.409587   329A      5.433371   330A      5.552022  
     331A      5.553359   332A      5.575779   333A      5.628781  
     334A      5.632244   335A      5.655299   336A      5.698124  
     337A      5.699209   338A      5.820333   339A      5.843269  
     340A      5.859319   341A      5.909241   342A      5.929924  
     343A      6.028572   344A      6.059384   345A      6.063568  
     346A      6.173506   347A      6.219086   348A      6.246673  
     349A      6.331761   350A      6.365557   351A      6.402133  
     352A      6.505814   353A      6.569716   354A      6.614624  
     355A      6.618613   356A      6.654681   357A      6.737150  
     358A      6.777870   359A      6.796985   360A      6.868220  
     361A      6.875730   362A      6.897084   363A      6.977244  
     364A      7.045032   365A      7.069973   366A      7.103494  
     367A      7.166933   368A      7.211165   369A      7.326529  
     370A      7.355082   371A      7.369728   372A      7.453400  
     373A      7.554770   374A      7.629650   375A      7.631442  
     376A      7.676562   377A      7.704639   378A      7.709994  
     379A      7.738459   380A      7.826128   381A      7.858785  
     382A      7.889378   383A      7.942591   384A      7.950063  
     385A      7.980938   386A      8.048628   387A      8.112651  
     388A      8.148630   389A      8.180720   390A      8.537867  
     391A      8.684828   392A      8.770037   393A      9.227209  
     394A      9.519733   395A      9.636187   396A      9.794190  
     397A      9.866988   398A     10.074439   399A     10.110758  
     400A     10.420458   401A     10.676492   402A     11.250492  
     403A     11.782434   404A     11.860846   405A     12.464553  
     406A     12.631304   407A     13.328059   408A     13.982816  
     409A     15.867462   410A     17.593906   411A     18.758320  
     412A     51.484396   413A     63.196058   414A     66.698669  

    Final Occupation by Irrep:
              A 
    DOCC [    12 ]

  @DF-RHF Final Energy:  -169.00326086080142

   => Energetics <=

    Nuclear Repulsion Energy =             71.1611145121232624
    One-Electron Energy =                -371.5071282128974985
    Two-Electron Energy =                 131.3427528399728033
    Total Energy =                       -169.0032608608014186

Computation Completed


Properties will be evaluated at   0.000000,   0.000000,   0.000000 [a0]

Properties computed using the SCF density matrix

  Nuclear Dipole Moment: [e a0]
     X:   -77.5339      Y:     7.4820      Z:    -0.0000

  Electronic Dipole Moment: [e a0]
     X:    76.9115      Y:    -9.1241      Z:     0.0000

  Dipole Moment: [e a0]
     X:    -0.6224      Y:    -1.6421      Z:    -0.0000     Total:     1.7561

  Dipole Moment: [D]
     X:    -1.5819      Y:    -4.1739      Z:    -0.0000     Total:     4.4636


*** tstop() called on node51.bme.utexas.edu at Tue Sep 10 12:36:34 2019
Module time:
	user time   =      50.80 seconds =       0.85 minutes
	system time =       1.41 seconds =       0.02 minutes
	total time  =         15 seconds =       0.25 minutes
Total time:
	user time   =     185.00 seconds =       3.08 minutes
	system time =       4.55 seconds =       0.08 minutes
	total time  =         52 seconds =       0.87 minutes
  Constructing Basis Sets for SAPT...

   => Loading Basis Set <=

    Name: (AUG-CC-PVTZ AUX)
    Role: RIFIT
    Keyword: DF_BASIS_SAPT
    atoms 1, 7             entry C          line   148 file /home/xy3866/psi4conda/share/psi4/basis/aug-cc-pvtz-ri.gbs 
    atoms 2, 5-6, 8, 11-12 entry H          line    30 file /home/xy3866/psi4conda/share/psi4/basis/aug-cc-pvtz-ri.gbs 
    atoms 3, 9             entry O          line   264 file /home/xy3866/psi4conda/share/psi4/basis/aug-cc-pvtz-ri.gbs 
    atoms 4, 10            entry N          line   206 file /home/xy3866/psi4conda/share/psi4/basis/aug-cc-pvtz-ri.gbs 


  //>>>>>>>>>>>>>>>>>>>>>>>>>>>>>>>>>>>//
  //               SAPT2+              //
  //<<<<<<<<<<<<<<<<<<<<<<<<<<<<<<<<<<<//


*** tstart() called on node51.bme.utexas.edu
*** at Tue Sep 10 12:36:34 2019

        SAPT2+  
    Ed Hohenstein
     6 June 2009

      Orbital Information
  --------------------------
    NSO        =       414
    NMO        =       414
    NRI        =       912
    NOCC A     =        12
    NOCC B     =        12
    FOCC A     =         3
    FOCC B     =         3
    NVIR A     =       402
    NVIR B     =       402

    Estimated memory usage: 1737.6 MB

    Natural Orbital Cutoff:   1.000E-06
    Disp(T3) Truncation:            Yes
    CCD (vv|vv) Truncation:         Yes
    MBPT T2 Truncation:             Yes

    Monomer A: 220 virtual orbitals dropped
    Monomer B: 220 virtual orbitals dropped

    Elst10,r            =    -0.030502238406 [Eh]
    Exch10 (S^2)        =     0.020865043221 [Eh]
    Exch10              =     0.021025956417 [Eh]
    Ind20,r (A<-B)      =    -0.005722139744 [Eh]
    Ind20,r (B<-A)      =    -0.005613364731 [Eh]
    Ind20,r             =    -0.011335504475 [Eh]
    Exch-Ind20,r (A<-B) =     0.002667981381 [Eh]
    Exch-Ind20,r (B<-A) =     0.002638387879 [Eh]
    Exch-Ind20,r        =     0.005306369260 [Eh]
    Disp20              =    -0.009598308450 [Eh]
    Disp20 (NO)         =    -0.008386943340 [Eh]
    Exch-Disp20         =     0.001590586463 [Eh]
    Elst12,r            =     0.001464323709 [Eh]
    Exch11              =     0.000061362566 [Eh]
    Exch12              =     0.003603491865 [Eh]
    Ind22               =    -0.001539080435 [Eh]
    Disp21              =     0.000562722147 [Eh]
    Disp22 (SDQ)        =    -0.000130234789 [Eh]

    (i =   1 of   9)         26 seconds
    (i =   2 of   9)         52 seconds
    (i =   3 of   9)         77 seconds
    (i =   4 of   9)        103 seconds
    (i =   5 of   9)        129 seconds
    (i =   6 of   9)        155 seconds
    (i =   7 of   9)        181 seconds
    (i =   8 of   9)        207 seconds
    (i =   9 of   9)        233 seconds

    Disp220 (T)         =    -0.000805060985 [Eh]

    (i =   1 of   9)         26 seconds
    (i =   2 of   9)         52 seconds
    (i =   3 of   9)         78 seconds
    (i =   4 of   9)        104 seconds
    (i =   5 of   9)        130 seconds
    (i =   6 of   9)        156 seconds
    (i =   7 of   9)        182 seconds
    (i =   8 of   9)        208 seconds
    (i =   9 of   9)        232 seconds

    Disp202 (T)         =    -0.000810029685 [Eh]

    Disp22 (T)          =    -0.001615090669 [Eh]

    Est. Disp220 (T)    =    -0.000921339675 [Eh]
    Est. Disp202 (T)    =    -0.000927026028 [Eh]

    Est. Disp22 (T)     =    -0.001848365703 [Eh]

    SAPT Results 
  --------------------------------------------------------------------------------------------------------
    Electrostatics                -29.03791470 [mEh]     -18.22156657 [kcal/mol]     -76.23903453 [kJ/mol]
      Elst10,r                    -30.50223841 [mEh]     -19.14044357 [kcal/mol]     -80.08361590 [kJ/mol]
      Elst12,r                      1.46432371 [mEh]       0.91887700 [kcal/mol]       3.84458137 [kJ/mol]

    Exchange                       24.69081085 [mEh]      15.49371772 [kcal/mol]      64.82571495 [kJ/mol]
      Exch10                       21.02595642 [mEh]      13.19398685 [kcal/mol]      55.20364097 [kJ/mol]
      Exch10(S^2)                  20.86504322 [mEh]      13.09301229 [kcal/mol]      54.78116343 [kJ/mol]
      Exch11(S^2)                   0.06136257 [mEh]       0.03850559 [kcal/mol]       0.16110739 [kJ/mol]
      Exch12(S^2)                   3.60349187 [mEh]       2.26122528 [kcal/mol]       9.46096659 [kJ/mol]

    Induction                     -10.58871008 [mEh]      -6.64451589 [kcal/mol]     -27.80065448 [kJ/mol]
      Ind20,r                     -11.33550448 [mEh]      -7.11313645 [kcal/mol]     -29.76136290 [kJ/mol]
      Ind22                        -1.53908044 [mEh]      -0.96578755 [kcal/mol]      -4.04085513 [kJ/mol]
      Exch-Ind20,r                  5.30636926 [mEh]       3.32979698 [kcal/mol]      13.93187057 [kJ/mol]
      Exch-Ind22                    0.72047337 [mEh]       0.45210387 [kcal/mol]       1.89160257 [kJ/mol]
      delta HF,r (2)               -3.74096780 [mEh]      -2.34749273 [kcal/mol]      -9.82190960 [kJ/mol]

    Dispersion                     -9.42360033 [mEh]      -5.91339849 [kcal/mol]     -24.74165926 [kJ/mol]
      Disp20                       -9.59830845 [mEh]      -6.02302948 [kcal/mol]     -25.20035536 [kJ/mol]
      Disp21                        0.56272215 [mEh]       0.35311348 [kcal/mol]       1.47742679 [kJ/mol]
      Disp22 (SDQ)                 -0.13023479 [mEh]      -0.08172356 [kcal/mol]      -0.34193139 [kJ/mol]
      Disp22 (T)                   -1.61509067 [mEh]      -1.01348470 [kcal/mol]      -4.24041997 [kJ/mol]
      Est. Disp22 (T)              -1.84836570 [mEh]      -1.15986699 [kcal/mol]      -4.85288348 [kJ/mol]
      Exch-Disp20                   1.59058646 [mEh]       0.99810807 [kcal/mol]       4.17608418 [kJ/mol]

  Total HF                        -19.24638500 [mEh]     -12.07728892 [kcal/mol]     -50.53137686 [kJ/mol]
  Total SAPT0                     -27.25410699 [mEh]     -17.10221033 [kcal/mol]     -71.55564804 [kJ/mol]
  Total SAPT2                     -22.94353591 [mEh]     -14.39728615 [kcal/mol]     -60.23824524 [kJ/mol]
  Total SAPT2+                    -24.35941426 [mEh]     -15.28576322 [kcal/mol]     -63.95563332 [kJ/mol]

  Special recipe for scaled SAPT0 (see Manual):
    Electrostatics sSAPT0         -30.50223841 [mEh]     -19.14044357 [kcal/mol]     -80.08361590 [kJ/mol]
    Exchange sSAPT0                21.02595642 [mEh]      13.19398685 [kcal/mol]      55.20364097 [kJ/mol]
    Induction sSAPT0               -9.64638409 [mEh]      -6.05319741 [kcal/mol]     -25.32657795 [kJ/mol]
    Dispersion sSAPT0              -7.97063719 [mEh]      -5.00165035 [kcal/mol]     -20.92690506 [kJ/mol]
  Total sSAPT0                    -27.09330327 [mEh]     -17.00130448 [kcal/mol]     -71.13345794 [kJ/mol]
  --------------------------------------------------------------------------------------------------------

*** tstop() called on node51.bme.utexas.edu at Tue Sep 10 12:48:19 2019
Module time:
	user time   =    2583.40 seconds =      43.06 minutes
	system time =      92.47 seconds =       1.54 minutes
	total time  =        705 seconds =      11.75 minutes
Total time:
	user time   =    2768.72 seconds =      46.15 minutes
	system time =      97.04 seconds =       1.62 minutes
	total time  =        757 seconds =      12.62 minutes

    Psi4 stopped on: Tuesday, 10 September 2019 12:48PM
    Psi4 wall time for execution: 0:12:37.62

*** Psi4 exiting successfully. Buy a developer a beer!
