
    -----------------------------------------------------------------------
          Psi4: An Open-Source Ab Initio Electronic Structure Package
                               Psi4 1.3.2 release

                         Git: Rev {HEAD} ecbda83 


    R. M. Parrish, L. A. Burns, D. G. A. Smith, A. C. Simmonett,
    A. E. DePrince III, E. G. Hohenstein, U. Bozkaya, A. Yu. Sokolov,
    R. Di Remigio, R. M. Richard, J. F. Gonthier, A. M. James,
    H. R. McAlexander, A. Kumar, M. Saitow, X. Wang, B. P. Pritchard,
    P. Verma, H. F. Schaefer III, K. Patkowski, R. A. King, E. F. Valeev,
    F. A. Evangelista, J. M. Turney, T. D. Crawford, and C. D. Sherrill,
    J. Chem. Theory Comput. 13(7) pp 3185--3197 (2017).
    (doi: 10.1021/acs.jctc.7b00174)


                         Additional Contributions by
    P. Kraus, H. Kruse, M. H. Lechner, M. C. Schieber, R. A. Shaw,
    A. Alenaizan, R. Galvelis, Z. L. Glick, S. Lehtola, and J. P. Misiewicz

    -----------------------------------------------------------------------


    Psi4 started on: Monday, 09 September 2019 08:11PM

    Process ID: 59601
    Host:       node54.bme.utexas.edu
    PSIDATADIR: /home/xy3866/psi4conda/share/psi4
    Memory:     500.0 MiB
    Threads:    4
    
  ==> Input File <==

--------------------------------------------------------------------------
#psi4
#
memory 32 gb

molecule  {
0 1
  C       -1.9644470     0.1609890    -0.0000020
  H       -3.0589320     0.1627090    -0.0000040
  O       -1.3160380     1.1929960    -0.0000020
  O       -1.4968300    -1.0660630     0.0000020
  H       -0.4778920    -1.0649310     0.0000090
--
0 1
  C        1.7232828    -0.1722407    -0.0000031
  H        2.8050987    -0.2944657    -0.0000051
  N        0.9054918    -1.1696077    -0.0000010
  H        1.4160868    -2.0431127    -0.0000010
  N        1.3084328     1.1045833     0.0000019
  H        0.3124158     1.3031163     0.0000010
  H        1.9753527     1.8492593     0.0000039
units angstrom
no_reorient  #important for SAPT in psi4, default
symmetry c1  #important for SAPT in psi4, default
}

set {
basis aug-cc-pVTZ
scf_type DF
freeze_core True
}
energy('sapt2+')
--------------------------------------------------------------------------

  Memory set to  29.802 GiB by Python driver.

  //>>>>>>>>>>>>>>>>>>>>>>>>>>>>>>>>>>>//
  //              Dimer HF             //
  //<<<<<<<<<<<<<<<<<<<<<<<<<<<<<<<<<<<//


*** tstart() called on node54.bme.utexas.edu
*** at Mon Sep  9 20:11:50 2019

   => Loading Basis Set <=

    Name: AUG-CC-PVTZ
    Role: ORBITAL
    Keyword: BASIS
    atoms 1, 6              entry C          line   235 file /home/xy3866/psi4conda/share/psi4/basis/aug-cc-pvtz.gbs 
    atoms 2, 5, 7, 9, 11-12 entry H          line    36 file /home/xy3866/psi4conda/share/psi4/basis/aug-cc-pvtz.gbs 
    atoms 3-4               entry O          line   327 file /home/xy3866/psi4conda/share/psi4/basis/aug-cc-pvtz.gbs 
    atoms 8, 10             entry N          line   281 file /home/xy3866/psi4conda/share/psi4/basis/aug-cc-pvtz.gbs 


         ---------------------------------------------------------
                                   SCF
               by Justin Turney, Rob Parrish, Andy Simmonett
                          and Daniel G. A. Smith
                              RHF Reference
                        4 Threads,  30517 MiB Core
         ---------------------------------------------------------

  ==> Geometry <==

    Molecular point group: c1
    Full point group: C1

    Geometry (in Angstrom), charge = 0, multiplicity = 1:

       Center              X                  Y                   Z               Mass       
    ------------   -----------------  -----------------  -----------------  -----------------
         C           -1.810204826143     0.151031397158    -0.000001502820    12.000000000000
         H           -2.904689826143     0.152751397158    -0.000003502820     1.007825032230
         O           -1.161795826143     1.183038397158    -0.000001502820    15.994914619570
         O           -1.342587826143    -1.076020602842     0.000002497180    15.994914619570
         H           -0.323649826143    -1.074888602842     0.000009497180     1.007825032230
         C            1.877524973857    -0.182198302842    -0.000002602820    12.000000000000
         H            2.959340873857    -0.304423302842    -0.000004602820     1.007825032230
         N            1.059733973857    -1.179565302842    -0.000000502820    14.003074004430
         H            1.570328973857    -2.053070302842    -0.000000502820     1.007825032230
         N            1.462674973857     1.094625697158     0.000002397180    14.003074004430
         H            0.466657973857     1.293158697158     0.000001497180     1.007825032230
         H            2.129594873857     1.839301697158     0.000004397180     1.007825032230

  Running in c1 symmetry.

  Rotational constants: A =      0.19058  B =      0.08327  C =      0.05795 [cm^-1]
  Rotational constants: A =   5713.45115  B =   2496.33213  C =   1737.27749 [MHz]
  Nuclear repulsion =  240.211421183960681

  Charge       = 0
  Multiplicity = 1
  Electrons    = 48
  Nalpha       = 24
  Nbeta        = 24

  ==> Algorithm <==

  SCF Algorithm Type is DF.
  DIIS enabled.
  MOM disabled.
  Fractional occupation disabled.
  Guess Type is SAD.
  Energy threshold   = 1.00e-08
  Density threshold  = 1.00e-08
  Integral threshold = 0.00e+00

  ==> Primary Basis <==

  Basis Set: AUG-CC-PVTZ
    Blend: AUG-CC-PVTZ
    Number of shells: 138
    Number of basis function: 414
    Number of Cartesian functions: 480
    Spherical Harmonics?: true
    Max angular momentum: 3

   => Loading Basis Set <=

    Name: (AUG-CC-PVTZ AUX)
    Role: JKFIT
    Keyword: DF_BASIS_SCF
    atoms 1, 6              entry C          line   162 file /home/xy3866/psi4conda/share/psi4/basis/aug-cc-pvtz-jkfit.gbs 
    atoms 2, 5, 7, 9, 11-12 entry H          line    70 file /home/xy3866/psi4conda/share/psi4/basis/aug-cc-pvtz-jkfit.gbs 
    atoms 3-4               entry O          line   286 file /home/xy3866/psi4conda/share/psi4/basis/aug-cc-pvtz-jkfit.gbs 
    atoms 8, 10             entry N          line   224 file /home/xy3866/psi4conda/share/psi4/basis/aug-cc-pvtz-jkfit.gbs 

  ==> Pre-Iterations <==

   -------------------------------------------------------
    Irrep   Nso     Nmo     Nalpha   Nbeta   Ndocc  Nsocc
   -------------------------------------------------------
     A        414     414       0       0       0       0
   -------------------------------------------------------
    Total     414     414      24      24      24       0
   -------------------------------------------------------

  ==> Integral Setup <==

  ==> DiskDFJK: Density-Fitted J/K Matrices <==

    J tasked:                  Yes
    K tasked:                  Yes
    wK tasked:                  No
    OpenMP threads:              4
    Integrals threads:           4
    Memory [MiB]:            22888
    Algorithm:                Core
    Integral Cache:           SAVE
    Schwarz Cutoff:          1E-12
    Fitting Condition:       1E-10

   => Auxiliary Basis Set <=

  Basis Set: (AUG-CC-PVTZ AUX)
    Blend: AUG-CC-PVTZ-JKFIT
    Number of shells: 264
    Number of basis function: 900
    Number of Cartesian functions: 1116
    Spherical Harmonics?: true
    Max angular momentum: 4

  Minimum eigenvalue in the overlap matrix is 2.1934670349E-05.
  Using Symmetric Orthogonalization.

  SCF Guess: Superposition of Atomic Densities via on-the-fly atomic UHF.

  ==> Iterations <==

                           Total Energy        Delta E     RMS |[F,P]|

   @DF-RHF iter SAD:  -336.90191240064860   -3.36902e+02   0.00000e+00 
   @DF-RHF iter   1:  -337.78409904756393   -8.82187e-01   1.72665e-03 DIIS
   @DF-RHF iter   2:  -337.93381869159111   -1.49720e-01   1.01780e-03 DIIS
   @DF-RHF iter   3:  -337.99435597134686   -6.05373e-02   1.35210e-04 DIIS
   @DF-RHF iter   4:  -337.99637994162208   -2.02397e-03   5.55779e-05 DIIS
   @DF-RHF iter   5:  -337.99665851463374   -2.78573e-04   1.43000e-05 DIIS
   @DF-RHF iter   6:  -337.99669599102367   -3.74764e-05   7.27723e-06 DIIS
   @DF-RHF iter   7:  -337.99670497323422   -8.98221e-06   2.46766e-06 DIIS
   @DF-RHF iter   8:  -337.99670668259643   -1.70936e-06   1.06008e-06 DIIS
   @DF-RHF iter   9:  -337.99670693998030   -2.57384e-07   3.39562e-07 DIIS
   @DF-RHF iter  10:  -337.99670697045246   -3.04722e-08   1.22013e-07 DIIS
   @DF-RHF iter  11:  -337.99670697325769   -2.80522e-09   4.10480e-08 DIIS
   @DF-RHF iter  12:  -337.99670697360813   -3.50440e-10   1.36236e-08 DIIS
   @DF-RHF iter  13:  -337.99670697363302   -2.48974e-11   4.46835e-09 DIIS
  Energy and wave function converged.


  ==> Post-Iterations <==

    Orbital Energies [Eh]
    ---------------------

    Doubly Occupied:                                                      

       1A    -20.555340     2A    -20.538263     3A    -15.572611  
       4A    -15.543466     5A    -11.370178     6A    -11.341371  
       7A     -1.435328     8A     -1.341035     9A     -1.276597  
      10A     -1.161599    11A     -0.882389    12A     -0.829957  
      13A     -0.765256    14A     -0.731333    15A     -0.688375  
      16A     -0.646582    17A     -0.619937    18A     -0.599290  
      19A     -0.578494    20A     -0.543135    21A     -0.465736  
      22A     -0.460741    23A     -0.427271    24A     -0.381118  

    Virtual:                                                              

      25A      0.022062    26A      0.036051    27A      0.040378  
      28A      0.051835    29A      0.068682    30A      0.072304  
      31A      0.072595    32A      0.090309    33A      0.112289  
      34A      0.116660    35A      0.119888    36A      0.122930  
      37A      0.135342    38A      0.139953    39A      0.145010  
      40A      0.150707    41A      0.156246    42A      0.162682  
      43A      0.187669    44A      0.188848    45A      0.196932  
      46A      0.196993    47A      0.208452    48A      0.222057  
      49A      0.232314    50A      0.253976    51A      0.263362  
      52A      0.269432    53A      0.273221    54A      0.278256  
      55A      0.281320    56A      0.294264    57A      0.309142  
      58A      0.313309    59A      0.319444    60A      0.325965  
      61A      0.328354    62A      0.332046    63A      0.337559  
      64A      0.341236    65A      0.363928    66A      0.366728  
      67A      0.384711    68A      0.386055    69A      0.391790  
      70A      0.414185    71A      0.420938    72A      0.421095  
      73A      0.436853    74A      0.441529    75A      0.448534  
      76A      0.464020    77A      0.472302    78A      0.479067  
      79A      0.489159    80A      0.500881    81A      0.502431  
      82A      0.518364    83A      0.529973    84A      0.536299  
      85A      0.545680    86A      0.547574    87A      0.572013  
      88A      0.581117    89A      0.593089    90A      0.595077  
      91A      0.605815    92A      0.617220    93A      0.648167  
      94A      0.653588    95A      0.654799    96A      0.662129  
      97A      0.680747    98A      0.687637    99A      0.694589  
     100A      0.705501   101A      0.708814   102A      0.730879  
     103A      0.743736   104A      0.752321   105A      0.777436  
     106A      0.782296   107A      0.792422   108A      0.802953  
     109A      0.822322   110A      0.826661   111A      0.839114  
     112A      0.842968   113A      0.844563   114A      0.861382  
     115A      0.873464   116A      0.894387   117A      0.897676  
     118A      0.917120   119A      0.917507   120A      0.927439  
     121A      0.933790   122A      0.956751   123A      0.966780  
     124A      0.967141   125A      0.978619   126A      0.980616  
     127A      0.987204   128A      0.988442   129A      1.013697  
     130A      1.018227   131A      1.023460   132A      1.032154  
     133A      1.040896   134A      1.045593   135A      1.056637  
     136A      1.076439   137A      1.085302   138A      1.090891  
     139A      1.092588   140A      1.100640   141A      1.110826  
     142A      1.139578   143A      1.158154   144A      1.172585  
     145A      1.178009   146A      1.179045   147A      1.193554  
     148A      1.214077   149A      1.214628   150A      1.240253  
     151A      1.249525   152A      1.258622   153A      1.271337  
     154A      1.299089   155A      1.301462   156A      1.311555  
     157A      1.328438   158A      1.337468   159A      1.354372  
     160A      1.357847   161A      1.373090   162A      1.375382  
     163A      1.396611   164A      1.399862   165A      1.423642  
     166A      1.442170   167A      1.447600   168A      1.450317  
     169A      1.459677   170A      1.483691   171A      1.489575  
     172A      1.505053   173A      1.537963   174A      1.553871  
     175A      1.561373   176A      1.565621   177A      1.568733  
     178A      1.583400   179A      1.602645   180A      1.618617  
     181A      1.627609   182A      1.639250   183A      1.643293  
     184A      1.675294   185A      1.675948   186A      1.697728  
     187A      1.722316   188A      1.733175   189A      1.743992  
     190A      1.766781   191A      1.781726   192A      1.820827  
     193A      1.838534   194A      1.852295   195A      1.860783  
     196A      1.869439   197A      1.902223   198A      1.972486  
     199A      1.977072   200A      1.986632   201A      2.025425  
     202A      2.035212   203A      2.048415   204A      2.056107  
     205A      2.104694   206A      2.119896   207A      2.132880  
     208A      2.141913   209A      2.165060   210A      2.169440  
     211A      2.179415   212A      2.203217   213A      2.225686  
     214A      2.257969   215A      2.258491   216A      2.315709  
     217A      2.336529   218A      2.346511   219A      2.377464  
     220A      2.409591   221A      2.425323   222A      2.443748  
     223A      2.448172   224A      2.461593   225A      2.494313  
     226A      2.499871   227A      2.509301   228A      2.536670  
     229A      2.541486   230A      2.563696   231A      2.571353  
     232A      2.586160   233A      2.590185   234A      2.612663  
     235A      2.621854   236A      2.628256   237A      2.655151  
     238A      2.657186   239A      2.682560   240A      2.694876  
     241A      2.697072   242A      2.739964   243A      2.769229  
     244A      2.781258   245A      2.813954   246A      2.822853  
     247A      2.834298   248A      2.888565   249A      2.908469  
     250A      2.935397   251A      2.939007   252A      2.995181  
     253A      3.058083   254A      3.084837   255A      3.099327  
     256A      3.115850   257A      3.133121   258A      3.152666  
     259A      3.229565   260A      3.240072   261A      3.249019  
     262A      3.290654   263A      3.333499   264A      3.383571  
     265A      3.444351   266A      3.454003   267A      3.455826  
     268A      3.475255   269A      3.499719   270A      3.580071  
     271A      3.605617   272A      3.612421   273A      3.669381  
     274A      3.678380   275A      3.714027   276A      3.742515  
     277A      3.795420   278A      3.817699   279A      3.840380  
     280A      3.849676   281A      3.867908   282A      3.908809  
     283A      3.928793   284A      3.963475   285A      4.067143  
     286A      4.069460   287A      4.075048   288A      4.092325  
     289A      4.132058   290A      4.136268   291A      4.153681  
     292A      4.184085   293A      4.201838   294A      4.215296  
     295A      4.220327   296A      4.251567   297A      4.268217  
     298A      4.274010   299A      4.304930   300A      4.330682  
     301A      4.353381   302A      4.359302   303A      4.362035  
     304A      4.372973   305A      4.411285   306A      4.429760  
     307A      4.461345   308A      4.472024   309A      4.498253  
     310A      4.574444   311A      4.586164   312A      4.600400  
     313A      4.610506   314A      4.622696   315A      4.632976  
     316A      4.692722   317A      4.751240   318A      4.788519  
     319A      4.790673   320A      4.842463   321A      4.844102  
     322A      4.857263   323A      4.866615   324A      4.870888  
     325A      4.887697   326A      4.906658   327A      4.962585  
     328A      5.013784   329A      5.020010   330A      5.027591  
     331A      5.050104   332A      5.101879   333A      5.123652  
     334A      5.143091   335A      5.182917   336A      5.189373  
     337A      5.211158   338A      5.222173   339A      5.244283  
     340A      5.272431   341A      5.330893   342A      5.334396  
     343A      5.390556   344A      5.400610   345A      5.433122  
     346A      5.493841   347A      5.505041   348A      5.543258  
     349A      5.560425   350A      5.587692   351A      5.633044  
     352A      5.683258   353A      5.693722   354A      5.743959  
     355A      5.766891   356A      5.796867   357A      5.848825  
     358A      5.863913   359A      5.895817   360A      5.939672  
     361A      6.019940   362A      6.054509   363A      6.054938  
     364A      6.113063   365A      6.160959   366A      6.172980  
     367A      6.194637   368A      6.243378   369A      6.295238  
     370A      6.371792   371A      6.428083   372A      6.481497  
     373A      6.543896   374A      6.620551   375A      6.677016  
     376A      6.749759   377A      6.784119   378A      6.801737  
     379A      6.853454   380A      6.884133   381A      6.916828  
     382A      7.006331   383A      7.019646   384A      7.026831  
     385A      7.122928   386A      7.123892   387A      7.192033  
     388A      7.217313   389A      7.299389   390A      7.331227  
     391A      7.419575   392A      7.451631   393A      7.454323  
     394A      7.475134   395A      7.543116   396A      7.625286  
     397A      7.627489   398A      7.691767   399A      7.721559  
     400A      7.778050   401A      7.791613   402A      7.908242  
     403A      7.974690   404A      8.087546   405A      8.220906  
     406A      8.355086   407A      8.600595   408A      8.948697  
     409A     15.686611   410A     16.471711   411A     17.483099  
     412A     18.044487   413A     18.790572   414A     19.150079  

    Final Occupation by Irrep:
              A 
    DOCC [    24 ]

  @DF-RHF Final Energy:  -337.99670697363302

   => Energetics <=

    Nuclear Repulsion Energy =            240.2114211839606810
    One-Electron Energy =                -938.9054555617655069
    Two-Electron Energy =                 360.6973274041718582
    Total Energy =                       -337.9967069736330245

Computation Completed


Properties will be evaluated at   0.000000,   0.000000,   0.000000 [a0]

Properties computed using the SCF density matrix

  Nuclear Dipole Moment: [e a0]
     X:     3.6345      Y:    -0.1372      Z:     0.0000

  Electronic Dipole Moment: [e a0]
     X:    -2.3118      Y:     0.2008      Z:    -0.0000

  Dipole Moment: [e a0]
     X:     1.3227      Y:     0.0636      Z:     0.0000     Total:     1.3242

  Dipole Moment: [D]
     X:     3.3619      Y:     0.1617      Z:     0.0000     Total:     3.3658


*** tstop() called on node54.bme.utexas.edu at Mon Sep  9 20:12:08 2019
Module time:
	user time   =      66.01 seconds =       1.10 minutes
	system time =       1.39 seconds =       0.02 minutes
	total time  =         18 seconds =       0.30 minutes
Total time:
	user time   =      66.01 seconds =       1.10 minutes
	system time =       1.39 seconds =       0.02 minutes
	total time  =         18 seconds =       0.30 minutes

  //>>>>>>>>>>>>>>>>>>>>>>>>>>>>>>>>>>>//
  //            Monomer A HF           //
  //<<<<<<<<<<<<<<<<<<<<<<<<<<<<<<<<<<<//


*** tstart() called on node54.bme.utexas.edu
*** at Mon Sep  9 20:12:08 2019

   => Loading Basis Set <=

    Name: AUG-CC-PVTZ
    Role: ORBITAL
    Keyword: BASIS
    atoms 1, 6              entry C          line   235 file /home/xy3866/psi4conda/share/psi4/basis/aug-cc-pvtz.gbs 
    atoms 2, 5, 7, 9, 11-12 entry H          line    36 file /home/xy3866/psi4conda/share/psi4/basis/aug-cc-pvtz.gbs 
    atoms 3-4               entry O          line   327 file /home/xy3866/psi4conda/share/psi4/basis/aug-cc-pvtz.gbs 
    atoms 8, 10             entry N          line   281 file /home/xy3866/psi4conda/share/psi4/basis/aug-cc-pvtz.gbs 


         ---------------------------------------------------------
                                   SCF
               by Justin Turney, Rob Parrish, Andy Simmonett
                          and Daniel G. A. Smith
                              RHF Reference
                        4 Threads,  30517 MiB Core
         ---------------------------------------------------------

  ==> Geometry <==

    Molecular point group: c1
    Full point group: C1

    Geometry (in Angstrom), charge = 0, multiplicity = 1:

       Center              X                  Y                   Z               Mass       
    ------------   -----------------  -----------------  -----------------  -----------------
         C           -1.810204826143     0.151031397158    -0.000001502820    12.000000000000
         H           -2.904689826143     0.152751397158    -0.000003502820     1.007825032230
         O           -1.161795826143     1.183038397158    -0.000001502820    15.994914619570
         O           -1.342587826143    -1.076020602842     0.000002497180    15.994914619570
         H           -0.323649826143    -1.074888602842     0.000009497180     1.007825032230
      Gh(C)           1.877524973857    -0.182198302842    -0.000002602820    12.000000000000
      Gh(H)           2.959340873857    -0.304423302842    -0.000004602820     1.007825032230
      Gh(N)           1.059733973857    -1.179565302842    -0.000000502820    14.003074004430
      Gh(H)           1.570328973857    -2.053070302842    -0.000000502820     1.007825032230
      Gh(N)           1.462674973857     1.094625697158     0.000002397180    14.003074004430
      Gh(H)           0.466657973857     1.293158697158     0.000001497180     1.007825032230
      Gh(H)           2.129594873857     1.839301697158     0.000004397180     1.007825032230

  Running in c1 symmetry.

  Rotational constants: A =      0.19058  B =      0.08327  C =      0.05795 [cm^-1]
  Rotational constants: A =   5713.45115  B =   2496.33213  C =   1737.27749 [MHz]
  Nuclear repulsion =   69.995387312911120

  Charge       = 0
  Multiplicity = 1
  Electrons    = 24
  Nalpha       = 12
  Nbeta        = 12

  ==> Algorithm <==

  SCF Algorithm Type is DF.
  DIIS enabled.
  MOM disabled.
  Fractional occupation disabled.
  Guess Type is SAD.
  Energy threshold   = 1.00e-08
  Density threshold  = 1.00e-08
  Integral threshold = 0.00e+00

  ==> Primary Basis <==

  Basis Set: AUG-CC-PVTZ
    Blend: AUG-CC-PVTZ
    Number of shells: 138
    Number of basis function: 414
    Number of Cartesian functions: 480
    Spherical Harmonics?: true
    Max angular momentum: 3

   => Loading Basis Set <=

    Name: (AUG-CC-PVTZ AUX)
    Role: JKFIT
    Keyword: DF_BASIS_SCF
    atoms 1, 6              entry C          line   162 file /home/xy3866/psi4conda/share/psi4/basis/aug-cc-pvtz-jkfit.gbs 
    atoms 2, 5, 7, 9, 11-12 entry H          line    70 file /home/xy3866/psi4conda/share/psi4/basis/aug-cc-pvtz-jkfit.gbs 
    atoms 3-4               entry O          line   286 file /home/xy3866/psi4conda/share/psi4/basis/aug-cc-pvtz-jkfit.gbs 
    atoms 8, 10             entry N          line   224 file /home/xy3866/psi4conda/share/psi4/basis/aug-cc-pvtz-jkfit.gbs 

  ==> Pre-Iterations <==

   -------------------------------------------------------
    Irrep   Nso     Nmo     Nalpha   Nbeta   Ndocc  Nsocc
   -------------------------------------------------------
     A        414     414       0       0       0       0
   -------------------------------------------------------
    Total     414     414      12      12      12       0
   -------------------------------------------------------

  ==> Integral Setup <==

  ==> DiskDFJK: Density-Fitted J/K Matrices <==

    J tasked:                  Yes
    K tasked:                  Yes
    wK tasked:                  No
    OpenMP threads:              4
    Integrals threads:           4
    Memory [MiB]:            22888
    Algorithm:                Core
    Integral Cache:           LOAD
    Schwarz Cutoff:          1E-12
    Fitting Condition:       1E-10

   => Auxiliary Basis Set <=

  Basis Set: (AUG-CC-PVTZ AUX)
    Blend: AUG-CC-PVTZ-JKFIT
    Number of shells: 264
    Number of basis function: 900
    Number of Cartesian functions: 1116
    Spherical Harmonics?: true
    Max angular momentum: 4

  Minimum eigenvalue in the overlap matrix is 2.1934670349E-05.
  Using Symmetric Orthogonalization.

  SCF Guess: Superposition of Atomic Densities via on-the-fly atomic UHF.

  ==> Iterations <==

                           Total Energy        Delta E     RMS |[F,P]|

   @DF-RHF iter SAD:  -187.97904377929333   -1.87979e+02   0.00000e+00 
   @DF-RHF iter   1:  -188.73119338281259   -7.52150e-01   1.26154e-03 DIIS
   @DF-RHF iter   2:  -188.79388434290271   -6.26910e-02   8.97746e-04 DIIS
   @DF-RHF iter   3:  -188.83727278833223   -4.33884e-02   1.07169e-04 DIIS
   @DF-RHF iter   4:  -188.83842007520093   -1.14729e-03   5.67326e-05 DIIS
   @DF-RHF iter   5:  -188.83871004818272   -2.89973e-04   1.37190e-05 DIIS
   @DF-RHF iter   6:  -188.83875227354287   -4.22254e-05   5.91143e-06 DIIS
   @DF-RHF iter   7:  -188.83876165785091   -9.38431e-06   2.13416e-06 DIIS
   @DF-RHF iter   8:  -188.83876276222094   -1.10437e-06   6.71130e-07 DIIS
   @DF-RHF iter   9:  -188.83876287346709   -1.11246e-07   1.93575e-07 DIIS
   @DF-RHF iter  10:  -188.83876288248283   -9.01574e-09   4.31300e-08 DIIS
   @DF-RHF iter  11:  -188.83876288286993   -3.87104e-10   7.44999e-09 DIIS
  Energy and wave function converged.


  ==> Post-Iterations <==

    Orbital Energies [Eh]
    ---------------------

    Doubly Occupied:                                                      

       1A    -20.639663     2A    -20.560475     3A    -11.395800  
       4A     -1.478598     5A     -1.367893     6A     -0.898048  
       7A     -0.730453     8A     -0.708487     9A     -0.643546  
      10A     -0.593082    11A     -0.490055    12A     -0.469573  

    Virtual:                                                              

      13A      0.019991    14A      0.033348    15A      0.039304  
      16A      0.051957    17A      0.064798    18A      0.068428  
      19A      0.071175    20A      0.083959    21A      0.084949  
      22A      0.109897    23A      0.112980    24A      0.120882  
      25A      0.127977    26A      0.133527    27A      0.139201  
      28A      0.140701    29A      0.147495    30A      0.159994  
      31A      0.175322    32A      0.183462    33A      0.195669  
      34A      0.196591    35A      0.200171    36A      0.217147  
      37A      0.227231    38A      0.245368    39A      0.252599  
      40A      0.261206    41A      0.269029    42A      0.277135  
      43A      0.280371    44A      0.291196    45A      0.298363  
      46A      0.313047    47A      0.313251    48A      0.322597  
      49A      0.330442    50A      0.340394    51A      0.346096  
      52A      0.351743    53A      0.355779    54A      0.359390  
      55A      0.368577    56A      0.372405    57A      0.379498  
      58A      0.393834    59A      0.414947    60A      0.421846  
      61A      0.422267    62A      0.431061    63A      0.434831  
      64A      0.444197    65A      0.463547    66A      0.464194  
      67A      0.466201    68A      0.481834    69A      0.497150  
      70A      0.514818    71A      0.522397    72A      0.533974  
      73A      0.542436    74A      0.564529    75A      0.567261  
      76A      0.573914    77A      0.592229    78A      0.603922  
      79A      0.627076    80A      0.642181    81A      0.658072  
      82A      0.665652    83A      0.683115    84A      0.687321  
      85A      0.698967    86A      0.707074    87A      0.723165  
      88A      0.730083    89A      0.735267    90A      0.754862  
      91A      0.772221    92A      0.777272    93A      0.778482  
      94A      0.783966    95A      0.798728    96A      0.807167  
      97A      0.818097    98A      0.830649    99A      0.837370  
     100A      0.850590   101A      0.864133   102A      0.868580  
     103A      0.891124   104A      0.897139   105A      0.903395  
     106A      0.904493   107A      0.916757   108A      0.930533  
     109A      0.932307   110A      0.947537   111A      0.948780  
     112A      0.966152   113A      0.982690   114A      0.987514  
     115A      1.003666   116A      1.006282   117A      1.013598  
     118A      1.024548   119A      1.040007   120A      1.051985  
     121A      1.059721   122A      1.066275   123A      1.073633  
     124A      1.092672   125A      1.094001   126A      1.114814  
     127A      1.116162   128A      1.123358   129A      1.157747  
     130A      1.158928   131A      1.159582   132A      1.174806  
     133A      1.194326   134A      1.214100   135A      1.236483  
     136A      1.242011   137A      1.258469   138A      1.269024  
     139A      1.284953   140A      1.303557   141A      1.305075  
     142A      1.323682   143A      1.334850   144A      1.339447  
     145A      1.359526   146A      1.379192   147A      1.408690  
     148A      1.421140   149A      1.421204   150A      1.454199  
     151A      1.458962   152A      1.475112   153A      1.476328  
     154A      1.491710   155A      1.507444   156A      1.516184  
     157A      1.533234   158A      1.533880   159A      1.548850  
     160A      1.549856   161A      1.585617   162A      1.590614  
     163A      1.605460   164A      1.629456   165A      1.645247  
     166A      1.649510   167A      1.654971   168A      1.686804  
     169A      1.693662   170A      1.697633   171A      1.706536  
     172A      1.706910   173A      1.718551   174A      1.733484  
     175A      1.737445   176A      1.742443   177A      1.757784  
     178A      1.783575   179A      1.797664   180A      1.800771  
     181A      1.815417   182A      1.820596   183A      1.830374  
     184A      1.852904   185A      1.894368   186A      1.923392  
     187A      1.937490   188A      1.976468   189A      2.039972  
     190A      2.043993   191A      2.064254   192A      2.082769  
     193A      2.100306   194A      2.119272   195A      2.132029  
     196A      2.185420   197A      2.204301   198A      2.217251  
     199A      2.245462   200A      2.275378   201A      2.305958  
     202A      2.335165   203A      2.352344   204A      2.380169  
     205A      2.396698   206A      2.405741   207A      2.409835  
     208A      2.433256   209A      2.451504   210A      2.461021  
     211A      2.476578   212A      2.487981   213A      2.518933  
     214A      2.525264   215A      2.560909   216A      2.570220  
     217A      2.572495   218A      2.607428   219A      2.615566  
     220A      2.636892   221A      2.647985   222A      2.661081  
     223A      2.683744   224A      2.736793   225A      2.740379  
     226A      2.754530   227A      2.757043   228A      2.805729  
     229A      2.816283   230A      2.823899   231A      2.837625  
     232A      2.840424   233A      2.889663   234A      2.913110  
     235A      2.922013   236A      2.941454   237A      2.948107  
     238A      2.960625   239A      2.968423   240A      3.003230  
     241A      3.011412   242A      3.040597   243A      3.054364  
     244A      3.106886   245A      3.118449   246A      3.163625  
     247A      3.202781   248A      3.210126   249A      3.223029  
     250A      3.235588   251A      3.270196   252A      3.315425  
     253A      3.350010   254A      3.369387   255A      3.421704  
     256A      3.438613   257A      3.479491   258A      3.503845  
     259A      3.601410   260A      3.628873   261A      3.672320  
     262A      3.688229   263A      3.713200   264A      3.740897  
     265A      3.814541   266A      3.821195   267A      3.892505  
     268A      3.944226   269A      4.015917   270A      4.034837  
     271A      4.080117   272A      4.082762   273A      4.122629  
     274A      4.136427   275A      4.183515   276A      4.223795  
     277A      4.242031   278A      4.261020   279A      4.275843  
     280A      4.337856   281A      4.377909   282A      4.443782  
     283A      4.451193   284A      4.466296   285A      4.480073  
     286A      4.482925   287A      4.539453   288A      4.560069  
     289A      4.576905   290A      4.637617   291A      4.674758  
     292A      4.718169   293A      4.737575   294A      4.749457  
     295A      4.809871   296A      4.821976   297A      4.851761  
     298A      4.852736   299A      4.861072   300A      4.873403  
     301A      4.902660   302A      4.924328   303A      4.940391  
     304A      4.960912   305A      4.973038   306A      4.978442  
     307A      5.021569   308A      5.047503   309A      5.050188  
     310A      5.118561   311A      5.133875   312A      5.182106  
     313A      5.199121   314A      5.203612   315A      5.238780  
     316A      5.319649   317A      5.338413   318A      5.340442  
     319A      5.359254   320A      5.367427   321A      5.404295  
     322A      5.419136   323A      5.421421   324A      5.443884  
     325A      5.459295   326A      5.479674   327A      5.522474  
     328A      5.620529   329A      5.668804   330A      5.730519  
     331A      5.736209   332A      5.799231   333A      5.925311  
     334A      5.928919   335A      5.959441   336A      5.982696  
     337A      6.076329   338A      6.147322   339A      6.177689  
     340A      6.255137   341A      6.277061   342A      6.308897  
     343A      6.347649   344A      6.409646   345A      6.453709  
     346A      6.471157   347A      6.498041   348A      6.577451  
     349A      6.589725   350A      6.617958   351A      6.659437  
     352A      6.674736   353A      6.722026   354A      6.786633  
     355A      6.789279   356A      6.830955   357A      6.876777  
     358A      6.893906   359A      6.897181   360A      6.941536  
     361A      6.995481   362A      7.000920   363A      7.101809  
     364A      7.114246   365A      7.185455   366A      7.204831  
     367A      7.268872   368A      7.284717   369A      7.305613  
     370A      7.317252   371A      7.365627   372A      7.446666  
     373A      7.519402   374A      7.534548   375A      7.539945  
     376A      7.551335   377A      7.585189   378A      7.621649  
     379A      7.653962   380A      7.676523   381A      7.705379  
     382A      7.772228   383A      7.785925   384A      7.804832  
     385A      7.810051   386A      7.902361   387A      7.929492  
     388A      8.064189   389A      8.130396   390A      8.170514  
     391A      8.247717   392A      8.369672   393A      8.517067  
     394A      8.576821   395A      8.746682   396A      8.785844  
     397A      9.078606   398A      9.356591   399A      9.451912  
     400A      9.549604   401A      9.597911   402A     10.581558  
     403A     10.875566   404A     11.258078   405A     11.680917  
     406A     11.761642   407A     12.348470   408A     12.974671  
     409A     15.748523   410A     16.625685   411A     18.758135  
     412A     52.331843   413A     59.979528   414A     62.772114  

    Final Occupation by Irrep:
              A 
    DOCC [    12 ]

  @DF-RHF Final Energy:  -188.83876288286993

   => Energetics <=

    Nuclear Repulsion Energy =             69.9953873129111201
    One-Electron Energy =                -397.7169527007014267
    Two-Electron Energy =                 138.8828025049203632
    Total Energy =                       -188.8387628828699292

Computation Completed


Properties will be evaluated at   0.000000,   0.000000,   0.000000 [a0]

Properties computed using the SCF density matrix

  Nuclear Dipole Moment: [e a0]
     X:   -64.4862      Y:     1.5877      Z:     0.0000

  Electronic Dipole Moment: [e a0]
     X:    64.3786      Y:    -2.4191      Z:    -0.0000

  Dipole Moment: [e a0]
     X:    -0.1076      Y:    -0.8313      Z:     0.0000     Total:     0.8383

  Dipole Moment: [D]
     X:    -0.2736      Y:    -2.1131      Z:     0.0000     Total:     2.1307


*** tstop() called on node54.bme.utexas.edu at Mon Sep  9 20:12:18 2019
Module time:
	user time   =      35.15 seconds =       0.59 minutes
	system time =       0.71 seconds =       0.01 minutes
	total time  =         10 seconds =       0.17 minutes
Total time:
	user time   =     101.19 seconds =       1.69 minutes
	system time =       2.10 seconds =       0.04 minutes
	total time  =         28 seconds =       0.47 minutes

  //>>>>>>>>>>>>>>>>>>>>>>>>>>>>>>>>>>>//
  //            Monomer B HF           //
  //<<<<<<<<<<<<<<<<<<<<<<<<<<<<<<<<<<<//


*** tstart() called on node54.bme.utexas.edu
*** at Mon Sep  9 20:12:18 2019

   => Loading Basis Set <=

    Name: AUG-CC-PVTZ
    Role: ORBITAL
    Keyword: BASIS
    atoms 1, 6              entry C          line   235 file /home/xy3866/psi4conda/share/psi4/basis/aug-cc-pvtz.gbs 
    atoms 2, 5, 7, 9, 11-12 entry H          line    36 file /home/xy3866/psi4conda/share/psi4/basis/aug-cc-pvtz.gbs 
    atoms 3-4               entry O          line   327 file /home/xy3866/psi4conda/share/psi4/basis/aug-cc-pvtz.gbs 
    atoms 8, 10             entry N          line   281 file /home/xy3866/psi4conda/share/psi4/basis/aug-cc-pvtz.gbs 


         ---------------------------------------------------------
                                   SCF
               by Justin Turney, Rob Parrish, Andy Simmonett
                          and Daniel G. A. Smith
                              RHF Reference
                        4 Threads,  30517 MiB Core
         ---------------------------------------------------------

  ==> Geometry <==

    Molecular point group: c1
    Full point group: C1

    Geometry (in Angstrom), charge = 0, multiplicity = 1:

       Center              X                  Y                   Z               Mass       
    ------------   -----------------  -----------------  -----------------  -----------------
      Gh(C)          -1.810204826143     0.151031397158    -0.000001502820    12.000000000000
      Gh(H)          -2.904689826143     0.152751397158    -0.000003502820     1.007825032230
      Gh(O)          -1.161795826143     1.183038397158    -0.000001502820    15.994914619570
      Gh(O)          -1.342587826143    -1.076020602842     0.000002497180    15.994914619570
      Gh(H)          -0.323649826143    -1.074888602842     0.000009497180     1.007825032230
         C            1.877524973857    -0.182198302842    -0.000002602820    12.000000000000
         H            2.959340873857    -0.304423302842    -0.000004602820     1.007825032230
         N            1.059733973857    -1.179565302842    -0.000000502820    14.003074004430
         H            1.570328973857    -2.053070302842    -0.000000502820     1.007825032230
         N            1.462674973857     1.094625697158     0.000002397180    14.003074004430
         H            0.466657973857     1.293158697158     0.000001497180     1.007825032230
         H            2.129594873857     1.839301697158     0.000004397180     1.007825032230

  Running in c1 symmetry.

  Rotational constants: A =      0.19058  B =      0.08327  C =      0.05795 [cm^-1]
  Rotational constants: A =   5713.45115  B =   2496.33213  C =   1737.27749 [MHz]
  Nuclear repulsion =   72.334193503680737

  Charge       = 0
  Multiplicity = 1
  Electrons    = 24
  Nalpha       = 12
  Nbeta        = 12

  ==> Algorithm <==

  SCF Algorithm Type is DF.
  DIIS enabled.
  MOM disabled.
  Fractional occupation disabled.
  Guess Type is SAD.
  Energy threshold   = 1.00e-08
  Density threshold  = 1.00e-08
  Integral threshold = 0.00e+00

  ==> Primary Basis <==

  Basis Set: AUG-CC-PVTZ
    Blend: AUG-CC-PVTZ
    Number of shells: 138
    Number of basis function: 414
    Number of Cartesian functions: 480
    Spherical Harmonics?: true
    Max angular momentum: 3

   => Loading Basis Set <=

    Name: (AUG-CC-PVTZ AUX)
    Role: JKFIT
    Keyword: DF_BASIS_SCF
    atoms 1, 6              entry C          line   162 file /home/xy3866/psi4conda/share/psi4/basis/aug-cc-pvtz-jkfit.gbs 
    atoms 2, 5, 7, 9, 11-12 entry H          line    70 file /home/xy3866/psi4conda/share/psi4/basis/aug-cc-pvtz-jkfit.gbs 
    atoms 3-4               entry O          line   286 file /home/xy3866/psi4conda/share/psi4/basis/aug-cc-pvtz-jkfit.gbs 
    atoms 8, 10             entry N          line   224 file /home/xy3866/psi4conda/share/psi4/basis/aug-cc-pvtz-jkfit.gbs 

  ==> Pre-Iterations <==

   -------------------------------------------------------
    Irrep   Nso     Nmo     Nalpha   Nbeta   Ndocc  Nsocc
   -------------------------------------------------------
     A        414     414       0       0       0       0
   -------------------------------------------------------
    Total     414     414      12      12      12       0
   -------------------------------------------------------

  ==> Integral Setup <==

  ==> DiskDFJK: Density-Fitted J/K Matrices <==

    J tasked:                  Yes
    K tasked:                  Yes
    wK tasked:                  No
    OpenMP threads:              4
    Integrals threads:           4
    Memory [MiB]:            22888
    Algorithm:                Core
    Integral Cache:           LOAD
    Schwarz Cutoff:          1E-12
    Fitting Condition:       1E-10

   => Auxiliary Basis Set <=

  Basis Set: (AUG-CC-PVTZ AUX)
    Blend: AUG-CC-PVTZ-JKFIT
    Number of shells: 264
    Number of basis function: 900
    Number of Cartesian functions: 1116
    Spherical Harmonics?: true
    Max angular momentum: 4

  Minimum eigenvalue in the overlap matrix is 2.1934670349E-05.
  Using Symmetric Orthogonalization.

  SCF Guess: Superposition of Atomic Densities via on-the-fly atomic UHF.

  ==> Iterations <==

                           Total Energy        Delta E     RMS |[F,P]|

   @DF-RHF iter SAD:  -148.39929870626284   -1.48399e+02   0.00000e+00 
   @DF-RHF iter   1:  -148.99811174319348   -5.98813e-01   1.32812e-03 DIIS
   @DF-RHF iter   2:  -149.10021166176045   -1.02100e-01   7.81711e-04 DIIS
   @DF-RHF iter   3:  -149.14204172111687   -4.18301e-02   1.09338e-04 DIIS
   @DF-RHF iter   4:  -149.14345290035709   -1.41118e-03   5.40725e-05 DIIS
   @DF-RHF iter   5:  -149.14372994000882   -2.77040e-04   9.80586e-06 DIIS
   @DF-RHF iter   6:  -149.14375839198601   -2.84520e-05   4.60269e-06 DIIS
   @DF-RHF iter   7:  -149.14376303948026   -4.64749e-06   1.85510e-06 DIIS
   @DF-RHF iter   8:  -149.14376395902661   -9.19546e-07   5.49759e-07 DIIS
   @DF-RHF iter   9:  -149.14376404390794   -8.48813e-08   1.68673e-07 DIIS
   @DF-RHF iter  10:  -149.14376405140908   -7.50114e-09   4.18390e-08 DIIS
   @DF-RHF iter  11:  -149.14376405187815   -4.69072e-10   7.94994e-09 DIIS
  Energy and wave function converged.


  ==> Post-Iterations <==

    Orbital Energies [Eh]
    ---------------------

    Doubly Occupied:                                                      

       1A    -15.580671     2A    -15.518346     3A    -11.313917  
       4A     -1.260949     5A     -1.136077     6A     -0.830608  
       7A     -0.749111     8A     -0.640561     9A     -0.618113  
      10A     -0.530870    11A     -0.417491    12A     -0.358862  

    Virtual:                                                              

      13A      0.022783    14A      0.032376    15A      0.037922  
      16A      0.052960    17A      0.061872    18A      0.073550  
      19A      0.074469    20A      0.089748    21A      0.100850  
      22A      0.112006    23A      0.117234    24A      0.119981  
      25A      0.130695    26A      0.135939    27A      0.143618  
      28A      0.154328    29A      0.156347    30A      0.163585  
      31A      0.176523    32A      0.187901    33A      0.192169  
      34A      0.210272    35A      0.212649    36A      0.224073  
      37A      0.229285    38A      0.231087    39A      0.255598  
      40A      0.261069    41A      0.263497    42A      0.279742  
      43A      0.284261    44A      0.291226    45A      0.304600  
      46A      0.314212    47A      0.319084    48A      0.325652  
      49A      0.332182    50A      0.338290    51A      0.341417  
      52A      0.349191    53A      0.361116    54A      0.369555  
      55A      0.378169    56A      0.388020    57A      0.406028  
      58A      0.414889    59A      0.421160    60A      0.427625  
      61A      0.430236    62A      0.430806    63A      0.441754  
      64A      0.457386    65A      0.477832    66A      0.478256  
      67A      0.486812    68A      0.493664    69A      0.515704  
      70A      0.515816    71A      0.524346    72A      0.530052  
      73A      0.538188    74A      0.551934    75A      0.562182  
      76A      0.577893    77A      0.582626    78A      0.599055  
      79A      0.617356    80A      0.649588    81A      0.660113  
      82A      0.661907    83A      0.668673    84A      0.678903  
      85A      0.686114    86A      0.700009    87A      0.703450  
      88A      0.713057    89A      0.719707    90A      0.731839  
      91A      0.750682    92A      0.758322    93A      0.771066  
      94A      0.799001    95A      0.804560    96A      0.839015  
      97A      0.850614    98A      0.862926    99A      0.867587  
     100A      0.868521   101A      0.893464   102A      0.899362  
     103A      0.910989   104A      0.922319   105A      0.932369  
     106A      0.934466   107A      0.937846   108A      0.942468  
     109A      0.953737   110A      0.954358   111A      0.980417  
     112A      0.987312   113A      0.991087   114A      1.004676  
     115A      1.007438   116A      1.012803   117A      1.022290  
     118A      1.040094   119A      1.040182   120A      1.048507  
     121A      1.049600   122A      1.063344   123A      1.085201  
     124A      1.095711   125A      1.098482   126A      1.106302  
     127A      1.113650   128A      1.121372   129A      1.133055  
     130A      1.133367   131A      1.148932   132A      1.162746  
     133A      1.178055   134A      1.195858   135A      1.203016  
     136A      1.208500   137A      1.220549   138A      1.235420  
     139A      1.263069   140A      1.268519   141A      1.281271  
     142A      1.297783   143A      1.330356   144A      1.333134  
     145A      1.340021   146A      1.347274   147A      1.378465  
     148A      1.380743   149A      1.400566   150A      1.403701  
     151A      1.413727   152A      1.417622   153A      1.439037  
     154A      1.448573   155A      1.449615   156A      1.474125  
     157A      1.493558   158A      1.502287   159A      1.519246  
     160A      1.540130   161A      1.567795   162A      1.572089  
     163A      1.584668   164A      1.586540   165A      1.605013  
     166A      1.631853   167A      1.642610   168A      1.689562  
     169A      1.694494   170A      1.729485   171A      1.731861  
     172A      1.742752   173A      1.757245   174A      1.782327  
     175A      1.797026   176A      1.821079   177A      1.845361  
     178A      1.859476   179A      1.874879   180A      1.889555  
     181A      1.905857   182A      1.907202   183A      1.921099  
     184A      1.928363   185A      1.936623   186A      1.978229  
     187A      1.986818   188A      2.019062   189A      2.032277  
     190A      2.033973   191A      2.076377   192A      2.091848  
     193A      2.124055   194A      2.143096   195A      2.150192  
     196A      2.167348   197A      2.180389   198A      2.191618  
     199A      2.204546   200A      2.208625   201A      2.227886  
     202A      2.233807   203A      2.284040   204A      2.321104  
     205A      2.338110   206A      2.374921   207A      2.395594  
     208A      2.452772   209A      2.469615   210A      2.473211  
     211A      2.481478   212A      2.507287   213A      2.520256  
     214A      2.550989   215A      2.558056   216A      2.577923  
     217A      2.621763   218A      2.623609   219A      2.637080  
     220A      2.638923   221A      2.668381   222A      2.674595  
     223A      2.692856   224A      2.700176   225A      2.701937  
     226A      2.730307   227A      2.748256   228A      2.785408  
     229A      2.790940   230A      2.833262   231A      2.838487  
     232A      2.872685   233A      2.886204   234A      2.890935  
     235A      2.944321   236A      2.956542   237A      2.959031  
     238A      2.995147   239A      3.029887   240A      3.069108  
     241A      3.097432   242A      3.146836   243A      3.180122  
     244A      3.208270   245A      3.231584   246A      3.244238  
     247A      3.296006   248A      3.324630   249A      3.406650  
     250A      3.451380   251A      3.457803   252A      3.472440  
     253A      3.502291   254A      3.561669   255A      3.570943  
     256A      3.591309   257A      3.631897   258A      3.633733  
     259A      3.657417   260A      3.689812   261A      3.708552  
     262A      3.764560   263A      3.787608   264A      3.841486  
     265A      3.860329   266A      3.870329   267A      3.912893  
     268A      3.935249   269A      3.953503   270A      3.999997  
     271A      4.018491   272A      4.065148   273A      4.086599  
     274A      4.089410   275A      4.126415   276A      4.156644  
     277A      4.186043   278A      4.194004   279A      4.212907  
     280A      4.225310   281A      4.230707   282A      4.243945  
     283A      4.314940   284A      4.325626   285A      4.361389  
     286A      4.361854   287A      4.385593   288A      4.387359  
     289A      4.423972   290A      4.427460   291A      4.474595  
     292A      4.567429   293A      4.588981   294A      4.620612  
     295A      4.648518   296A      4.665459   297A      4.676586  
     298A      4.690115   299A      4.750698   300A      4.758143  
     301A      4.778358   302A      4.816396   303A      4.853523  
     304A      4.853559   305A      4.885636   306A      4.889798  
     307A      4.915696   308A      4.932036   309A      4.938007  
     310A      4.971207   311A      5.003937   312A      5.039848  
     313A      5.050590   314A      5.083076   315A      5.099516  
     316A      5.110584   317A      5.135776   318A      5.182122  
     319A      5.218659   320A      5.263079   321A      5.266529  
     322A      5.290104   323A      5.293593   324A      5.303443  
     325A      5.379933   326A      5.413441   327A      5.431236  
     328A      5.476233   329A      5.477548   330A      5.495686  
     331A      5.505108   332A      5.525888   333A      5.539297  
     334A      5.576630   335A      5.624241   336A      5.667256  
     337A      5.679345   338A      5.731976   339A      5.739129  
     340A      5.788134   341A      5.807159   342A      5.839752  
     343A      5.866794   344A      5.895886   345A      5.960010  
     346A      6.045512   347A      6.061763   348A      6.084826  
     349A      6.114293   350A      6.155718   351A      6.169305  
     352A      6.190830   353A      6.228350   354A      6.316286  
     355A      6.344029   356A      6.369307   357A      6.432307  
     358A      6.552810   359A      6.583422   360A      6.647159  
     361A      6.750382   362A      6.766031   363A      6.820622  
     364A      6.908212   365A      7.028598   366A      7.115983  
     367A      7.190348   368A      7.265318   369A      7.450370  
     370A      7.508410   371A      7.578033   372A      7.681555  
     373A      7.718709   374A      7.769341   375A      7.828585  
     376A      7.852097   377A      7.873890   378A      7.918386  
     379A      7.996102   380A      8.115926   381A      8.117428  
     382A      8.149020   383A      8.232185   384A      8.389812  
     385A      8.415341   386A      8.596266   387A      8.820302  
     388A      9.020574   389A      9.337439   390A      9.782750  
     391A      9.849587   392A      9.928711   393A     10.022973  
     394A     10.060984   395A     10.091423   396A     10.412054  
     397A     10.493491   398A     10.634596   399A     11.022606  
     400A     11.257136   401A     11.861367   402A     11.930137  
     403A     12.354417   404A     12.569772   405A     13.121205  
     406A     13.544773   407A     14.069942   408A     14.526557  
     409A     17.340141   410A     18.086812   411A     19.153940  
     412A     52.058498   413A     65.525840   414A     68.908354  

    Final Occupation by Irrep:
              A 
    DOCC [    12 ]

  @DF-RHF Final Energy:  -149.14376405187815

   => Energetics <=

    Nuclear Repulsion Energy =             72.3341935036807371
    One-Electron Energy =                -345.0447614314464317
    Two-Electron Energy =                 123.5668038758875298
    Total Energy =                       -149.1437640518781507

Computation Completed


Properties will be evaluated at   0.000000,   0.000000,   0.000000 [a0]

Properties computed using the SCF density matrix

  Nuclear Dipole Moment: [e a0]
     X:    68.1207      Y:    -1.7249      Z:    -0.0000

  Electronic Dipole Moment: [e a0]
     X:   -67.2076      Y:     2.6144      Z:     0.0000

  Dipole Moment: [e a0]
     X:     0.9132      Y:     0.8895      Z:    -0.0000     Total:     1.2748

  Dipole Moment: [D]
     X:     2.3210      Y:     2.2608      Z:    -0.0000     Total:     3.2401


*** tstop() called on node54.bme.utexas.edu at Mon Sep  9 20:12:28 2019
Module time:
	user time   =      35.10 seconds =       0.58 minutes
	system time =       0.70 seconds =       0.01 minutes
	total time  =         10 seconds =       0.17 minutes
Total time:
	user time   =     136.31 seconds =       2.27 minutes
	system time =       2.80 seconds =       0.05 minutes
	total time  =         38 seconds =       0.63 minutes
  Constructing Basis Sets for SAPT...

   => Loading Basis Set <=

    Name: (AUG-CC-PVTZ AUX)
    Role: RIFIT
    Keyword: DF_BASIS_SAPT
    atoms 1, 6              entry C          line   148 file /home/xy3866/psi4conda/share/psi4/basis/aug-cc-pvtz-ri.gbs 
    atoms 2, 5, 7, 9, 11-12 entry H          line    30 file /home/xy3866/psi4conda/share/psi4/basis/aug-cc-pvtz-ri.gbs 
    atoms 3-4               entry O          line   264 file /home/xy3866/psi4conda/share/psi4/basis/aug-cc-pvtz-ri.gbs 
    atoms 8, 10             entry N          line   206 file /home/xy3866/psi4conda/share/psi4/basis/aug-cc-pvtz-ri.gbs 


  //>>>>>>>>>>>>>>>>>>>>>>>>>>>>>>>>>>>//
  //               SAPT2+              //
  //<<<<<<<<<<<<<<<<<<<<<<<<<<<<<<<<<<<//


*** tstart() called on node54.bme.utexas.edu
*** at Mon Sep  9 20:12:28 2019

        SAPT2+  
    Ed Hohenstein
     6 June 2009

      Orbital Information
  --------------------------
    NSO        =       414
    NMO        =       414
    NRI        =       912
    NOCC A     =        12
    NOCC B     =        12
    FOCC A     =         3
    FOCC B     =         3
    NVIR A     =       402
    NVIR B     =       402

    Estimated memory usage: 1737.6 MB

    Natural Orbital Cutoff:   1.000E-06
    Disp(T3) Truncation:            Yes
    CCD (vv|vv) Truncation:         Yes
    MBPT T2 Truncation:             Yes

    Monomer A: 234 virtual orbitals dropped
    Monomer B: 196 virtual orbitals dropped

    Elst10,r            =    -0.093512290164 [Eh]
    Exch10 (S^2)        =     0.135203550265 [Eh]
    Exch10              =     0.142111051784 [Eh]
    Ind20,r (A<-B)      =    -0.027751957423 [Eh]
    Ind20,r (B<-A)      =    -0.053315681156 [Eh]
    Ind20,r             =    -0.081067638578 [Eh]
    Exch-Ind20,r (A<-B) =     0.017635057502 [Eh]
    Exch-Ind20,r (B<-A) =     0.027431823949 [Eh]
    Exch-Ind20,r        =     0.045066881450 [Eh]
    Disp20              =    -0.033238795157 [Eh]
    Disp20 (NO)         =    -0.029605697323 [Eh]
    Exch-Disp20         =     0.007626267646 [Eh]
    Elst12,r            =     0.001111517980 [Eh]
    Exch11              =     0.001571565381 [Eh]
    Exch12              =     0.008604653461 [Eh]
    Ind22               =    -0.008377486567 [Eh]
    Disp21              =     0.003621120293 [Eh]
    Disp22 (SDQ)        =    -0.000392560346 [Eh]

    (i =   1 of   9)         21 seconds
    (i =   2 of   9)         43 seconds
    (i =   3 of   9)         64 seconds
    (i =   4 of   9)         85 seconds
    (i =   5 of   9)        106 seconds
    (i =   6 of   9)        128 seconds
    (i =   7 of   9)        149 seconds
    (i =   8 of   9)        170 seconds
    (i =   9 of   9)        192 seconds

    Disp220 (T)         =    -0.002793294065 [Eh]

    (i =   1 of   9)         27 seconds
    (i =   2 of   9)         54 seconds
    (i =   3 of   9)         82 seconds
    (i =   4 of   9)        109 seconds
    (i =   5 of   9)        136 seconds
    (i =   6 of   9)        163 seconds
    (i =   7 of   9)        190 seconds
    (i =   8 of   9)        218 seconds
    (i =   9 of   9)        245 seconds

    Disp202 (T)         =    -0.002289190291 [Eh]

    Disp22 (T)          =    -0.005082484356 [Eh]

    Est. Disp220 (T)    =    -0.003136076419 [Eh]
    Est. Disp202 (T)    =    -0.002570110959 [Eh]

    Est. Disp22 (T)     =    -0.005706187378 [Eh]

    SAPT Results 
  --------------------------------------------------------------------------------------------------------
    Electrostatics                -92.40077218 [mEh]     -57.98235993 [kcal/mol]    -242.59819395 [kJ/mol]
      Elst10,r                    -93.51229016 [mEh]     -58.67984799 [kcal/mol]    -245.51648400 [kJ/mol]
      Elst12,r                      1.11151798 [mEh]       0.69748806 [kcal/mol]       2.91829006 [kJ/mol]

    Exchange                      152.28727063 [mEh]      95.56170505 [kcal/mol]     399.83017394 [kJ/mol]
      Exch10                      142.11105178 [mEh]      89.17603132 [kcal/mol]     373.11251505 [kJ/mol]
      Exch10(S^2)                 135.20355027 [mEh]      84.84150868 [kcal/mol]     354.97687232 [kJ/mol]
      Exch11(S^2)                   1.57156538 [mEh]       0.98617217 [kcal/mol]       4.12614434 [kJ/mol]
      Exch12(S^2)                   8.60465346 [mEh]       5.39950157 [kcal/mol]      22.59151455 [kJ/mol]

    Induction                     -66.49909956 [mEh]     -41.72881497 [kcal/mol]    -174.59336184 [kJ/mol]
      Ind20,r                     -81.06763858 [mEh]     -50.87071122 [kcal/mol]    -212.84305576 [kJ/mol]
      Ind22                        -8.37748657 [mEh]      -5.25695219 [kcal/mol]     -21.99508795 [kJ/mol]
      Exch-Ind20,r                 45.06688145 [mEh]      28.27989506 [kcal/mol]     118.32308095 [kJ/mol]
      Exch-Ind22                    4.65718751 [mEh]       2.92242928 [kcal/mol]      12.22744413 [kJ/mol]
      delta HF,r (2)              -26.77804338 [mEh]     -16.80347591 [kcal/mol]     -70.30574320 [kJ/mol]

    Dispersion                    -28.09015494 [mEh]     -17.62683835 [kcal/mol]     -73.75069164 [kJ/mol]
      Disp20                      -33.23879516 [mEh]     -20.85765886 [kcal/mol]     -87.26844466 [kJ/mol]
      Disp21                        3.62112029 [mEh]       2.27228729 [kcal/mol]       9.50725002 [kJ/mol]
      Disp22 (SDQ)                 -0.39256035 [mEh]      -0.24633534 [kcal/mol]      -1.03066705 [kJ/mol]
      Disp22 (T)                   -5.08248436 [mEh]      -3.18930708 [kcal/mol]     -13.34406084 [kJ/mol]
      Est. Disp22 (T)              -5.70618738 [mEh]      -3.58068664 [kcal/mol]     -14.98159290 [kJ/mol]
      Exch-Disp20                   7.62626765 [mEh]       4.78555520 [kcal/mol]      20.02276295 [kJ/mol]

  Total HF                        -14.18003888 [mEh]      -8.89810874 [kcal/mol]     -37.22968696 [kJ/mol]
  Total SAPT0                     -39.79256640 [mEh]     -24.97021240 [kcal/mol]    -104.47536868 [kJ/mol]
  Total SAPT2                     -32.22512863 [mEh]     -20.22157351 [kcal/mol]     -84.60706356 [kJ/mol]
  Total SAPT2+                    -34.70275606 [mEh]     -21.77630819 [kcal/mol]     -91.11207349 [kJ/mol]

  Special recipe for scaled SAPT0 (see Manual):
    Electrostatics sSAPT0         -93.51229016 [mEh]     -58.67984799 [kcal/mol]    -245.51648400 [kJ/mol]
    Exchange sSAPT0               142.11105178 [mEh]      89.17603132 [kcal/mol]     373.11251505 [kJ/mol]
    Induction sSAPT0              -55.51254348 [mEh]     -34.83464695 [kcal/mol]    -145.74816282 [kJ/mol]
    Dispersion sSAPT0             -24.38292344 [mEh]     -15.30051546 [kcal/mol]     -64.01735668 [kJ/mol]
  Total sSAPT0                    -31.29670530 [mEh]     -19.63897907 [kcal/mol]     -82.16948845 [kJ/mol]
  --------------------------------------------------------------------------------------------------------

*** tstop() called on node54.bme.utexas.edu at Mon Sep  9 20:23:07 2019
Module time:
	user time   =    2441.08 seconds =      40.68 minutes
	system time =      51.00 seconds =       0.85 minutes
	total time  =        639 seconds =      10.65 minutes
Total time:
	user time   =    2577.73 seconds =      42.96 minutes
	system time =      53.81 seconds =       0.90 minutes
	total time  =        677 seconds =      11.28 minutes

    Psi4 stopped on: Monday, 09 September 2019 08:23PM
    Psi4 wall time for execution: 0:11:17.01

*** Psi4 exiting successfully. Buy a developer a beer!
