
    -----------------------------------------------------------------------
          Psi4: An Open-Source Ab Initio Electronic Structure Package
                               Psi4 1.3.2 release

                         Git: Rev {HEAD} ecbda83 


    R. M. Parrish, L. A. Burns, D. G. A. Smith, A. C. Simmonett,
    A. E. DePrince III, E. G. Hohenstein, U. Bozkaya, A. Yu. Sokolov,
    R. Di Remigio, R. M. Richard, J. F. Gonthier, A. M. James,
    H. R. McAlexander, A. Kumar, M. Saitow, X. Wang, B. P. Pritchard,
    P. Verma, H. F. Schaefer III, K. Patkowski, R. A. King, E. F. Valeev,
    F. A. Evangelista, J. M. Turney, T. D. Crawford, and C. D. Sherrill,
    J. Chem. Theory Comput. 13(7) pp 3185--3197 (2017).
    (doi: 10.1021/acs.jctc.7b00174)


                         Additional Contributions by
    P. Kraus, H. Kruse, M. H. Lechner, M. C. Schieber, R. A. Shaw,
    A. Alenaizan, R. Galvelis, Z. L. Glick, S. Lehtola, and J. P. Misiewicz

    -----------------------------------------------------------------------


    Psi4 started on: Tuesday, 10 September 2019 11:40AM

    Process ID: 45726
    Host:       node51.bme.utexas.edu
    PSIDATADIR: /home/xy3866/psi4conda/share/psi4
    Memory:     500.0 MiB
    Threads:    4
    
  ==> Input File <==

--------------------------------------------------------------------------
#psi4
#
memory 32 gb

molecule  {
0 1
  C        2.0083120    -0.3372920     0.0000040
  H        3.1030340    -0.4288200    -0.0000030
  O        1.2864570    -1.3299810     0.0000000
  N        1.5810970     0.9343630     0.0000010
  H        0.5827550     1.1459700     0.0000010
  H        3.1124342     1.5599936    -0.0000029
--
0 1
  C       -1.1480458     0.2186066     0.0000012
  H       -2.2427678     0.3101346    -0.0000008
  O       -0.4261908     1.2112956     0.0000002
  N       -0.7208308    -1.0530484     0.0000002
  H        0.2775112    -1.2646554     0.0000002
  H       -1.3919018    -1.7973644    -0.0000008
units angstrom
no_reorient  #important for SAPT in psi4, default
symmetry c1  #important for SAPT in psi4, default
}

set {
basis aug-cc-pVTZ
scf_type DF
freeze_core True
}
energy('sapt2+')
--------------------------------------------------------------------------

  Memory set to  29.802 GiB by Python driver.

  //>>>>>>>>>>>>>>>>>>>>>>>>>>>>>>>>>>>//
  //              Dimer HF             //
  //<<<<<<<<<<<<<<<<<<<<<<<<<<<<<<<<<<<//


*** tstart() called on node51.bme.utexas.edu
*** at Tue Sep 10 11:40:46 2019

   => Loading Basis Set <=

    Name: AUG-CC-PVTZ
    Role: ORBITAL
    Keyword: BASIS
    atoms 1, 7             entry C          line   235 file /home/xy3866/psi4conda/share/psi4/basis/aug-cc-pvtz.gbs 
    atoms 2, 5-6, 8, 11-12 entry H          line    36 file /home/xy3866/psi4conda/share/psi4/basis/aug-cc-pvtz.gbs 
    atoms 3, 9             entry O          line   327 file /home/xy3866/psi4conda/share/psi4/basis/aug-cc-pvtz.gbs 
    atoms 4, 10            entry N          line   281 file /home/xy3866/psi4conda/share/psi4/basis/aug-cc-pvtz.gbs 


         ---------------------------------------------------------
                                   SCF
               by Justin Turney, Rob Parrish, Andy Simmonett
                          and Daniel G. A. Smith
                              RHF Reference
                        4 Threads,  30517 MiB Core
         ---------------------------------------------------------

  ==> Geometry <==

    Molecular point group: c1
    Full point group: C1

    Geometry (in Angstrom), charge = 0, multiplicity = 1:

       Center              X                  Y                   Z               Mass       
    ------------   -----------------  -----------------  -----------------  -----------------
         C            1.568550183616    -0.276620887869     0.000003155365    12.000000000000
         H            2.663272183616    -0.368148887869    -0.000003844635     1.007825032230
         O            0.846695183616    -1.269309887869    -0.000000844635    15.994914619570
         N            1.141335183616     0.995034112131     0.000000155365    14.003074004430
         H            0.142993183616     1.206641112131     0.000000155365     1.007825032230
         H            2.672672383616     1.620664712131    -0.000003744635     1.007825032230
         C           -1.587807616384     0.279277712131     0.000000355365    12.000000000000
         H           -2.682529616384     0.370805712131    -0.000001644635     1.007825032230
         O           -0.865952616384     1.271966712131    -0.000000644635    15.994914619570
         N           -1.160592616384    -0.992377287869    -0.000000644635    14.003074004430
         H           -0.162250616384    -1.203984287869    -0.000000644635     1.007825032230
         H           -1.831663616384    -1.736693287869    -0.000001644635     1.007825032230

  Running in c1 symmetry.

  Rotational constants: A =      0.18923  B =      0.11520  C =      0.07161 [cm^-1]
  Rotational constants: A =   5672.88513  B =   3453.68290  C =   2146.73756 [MHz]
  Nuclear repulsion =  256.079776818798734

  Charge       = 0
  Multiplicity = 1
  Electrons    = 48
  Nalpha       = 24
  Nbeta        = 24

  ==> Algorithm <==

  SCF Algorithm Type is DF.
  DIIS enabled.
  MOM disabled.
  Fractional occupation disabled.
  Guess Type is SAD.
  Energy threshold   = 1.00e-08
  Density threshold  = 1.00e-08
  Integral threshold = 0.00e+00

  ==> Primary Basis <==

  Basis Set: AUG-CC-PVTZ
    Blend: AUG-CC-PVTZ
    Number of shells: 138
    Number of basis function: 414
    Number of Cartesian functions: 480
    Spherical Harmonics?: true
    Max angular momentum: 3

   => Loading Basis Set <=

    Name: (AUG-CC-PVTZ AUX)
    Role: JKFIT
    Keyword: DF_BASIS_SCF
    atoms 1, 7             entry C          line   162 file /home/xy3866/psi4conda/share/psi4/basis/aug-cc-pvtz-jkfit.gbs 
    atoms 2, 5-6, 8, 11-12 entry H          line    70 file /home/xy3866/psi4conda/share/psi4/basis/aug-cc-pvtz-jkfit.gbs 
    atoms 3, 9             entry O          line   286 file /home/xy3866/psi4conda/share/psi4/basis/aug-cc-pvtz-jkfit.gbs 
    atoms 4, 10            entry N          line   224 file /home/xy3866/psi4conda/share/psi4/basis/aug-cc-pvtz-jkfit.gbs 

  ==> Pre-Iterations <==

   -------------------------------------------------------
    Irrep   Nso     Nmo     Nalpha   Nbeta   Ndocc  Nsocc
   -------------------------------------------------------
     A        414     414       0       0       0       0
   -------------------------------------------------------
    Total     414     414      24      24      24       0
   -------------------------------------------------------

  ==> Integral Setup <==

  ==> DiskDFJK: Density-Fitted J/K Matrices <==

    J tasked:                  Yes
    K tasked:                  Yes
    wK tasked:                  No
    OpenMP threads:              4
    Integrals threads:           4
    Memory [MiB]:            22888
    Algorithm:                Core
    Integral Cache:           SAVE
    Schwarz Cutoff:          1E-12
    Fitting Condition:       1E-10

   => Auxiliary Basis Set <=

  Basis Set: (AUG-CC-PVTZ AUX)
    Blend: AUG-CC-PVTZ-JKFIT
    Number of shells: 264
    Number of basis function: 900
    Number of Cartesian functions: 1116
    Spherical Harmonics?: true
    Max angular momentum: 4

  Minimum eigenvalue in the overlap matrix is 1.5259456727E-05.
  Using Symmetric Orthogonalization.

  SCF Guess: Superposition of Atomic Densities via on-the-fly atomic UHF.

  ==> Iterations <==

                           Total Energy        Delta E     RMS |[F,P]|

   @DF-RHF iter SAD:  -337.45214191597580   -3.37452e+02   0.00000e+00 
   @DF-RHF iter   1:  -337.37899627549535    7.31456e-02   1.95857e-03 DIIS
   @DF-RHF iter   2:  -337.54166113175944   -1.62665e-01   1.45041e-03 DIIS
   @DF-RHF iter   3:  -337.68234386774731   -1.40683e-01   1.77651e-04 DIIS
   @DF-RHF iter   4:  -337.68655680321865   -4.21294e-03   1.05128e-04 DIIS
   @DF-RHF iter   5:  -337.68774662308834   -1.18982e-03   2.86689e-05 DIIS
   @DF-RHF iter   6:  -337.68797987919913   -2.33256e-04   1.30232e-05 DIIS
   @DF-RHF iter   7:  -337.68804488074312   -6.50015e-05   5.28251e-06 DIIS
   @DF-RHF iter   8:  -337.68805328160460   -8.40086e-06   2.00693e-06 DIIS
   @DF-RHF iter   9:  -337.68805454208672   -1.26048e-06   6.84945e-07 DIIS
   @DF-RHF iter  10:  -337.68805466705658   -1.24970e-07   2.36398e-07 DIIS
   @DF-RHF iter  11:  -337.68805467835335   -1.12968e-08   1.07175e-07 DIIS
   @DF-RHF iter  12:  -337.68805468059588   -2.24253e-09   2.83474e-08 DIIS
   @DF-RHF iter  13:  -337.68805468074299   -1.47111e-10   1.04077e-08 DIIS
   @DF-RHF iter  14:  -337.68805468076368   -2.06910e-11   3.19815e-09 DIIS
  Energy and wave function converged.


  ==> Post-Iterations <==

    Orbital Energies [Eh]
    ---------------------

    Doubly Occupied:                                                      

       1A    -20.554806     2A    -20.534597     3A    -15.576217  
       4A    -15.530594     5A    -11.369754     6A    -11.358651  
       7A     -1.469986     8A     -1.439952     9A     -1.221914  
      10A     -1.164780    11A     -0.963271    12A     -0.856013  
      13A     -0.791970    14A     -0.739274    15A     -0.690727  
      16A     -0.637601    17A     -0.619653    18A     -0.582907  
      19A     -0.567779    20A     -0.533994    21A     -0.437354  
      22A     -0.436624    23A     -0.388733    24A     -0.381630  

    Virtual:                                                              

      25A      0.020380    26A      0.028783    27A      0.043019  
      28A      0.053166    29A      0.056896    30A      0.072500  
      31A      0.074431    32A      0.088774    33A      0.088885  
      34A      0.099603    35A      0.118447    36A      0.128074  
      37A      0.133625    38A      0.141817    39A      0.142582  
      40A      0.150122    41A      0.152008    42A      0.160226  
      43A      0.178638    44A      0.184087    45A      0.194951  
      46A      0.195245    47A      0.211398    48A      0.219283  
      49A      0.222500    50A      0.255935    51A      0.257428  
      52A      0.260089    53A      0.263013    54A      0.275796  
      55A      0.286250    56A      0.289712    57A      0.295814  
      58A      0.304324    59A      0.312884    60A      0.324230  
      61A      0.335879    62A      0.336985    63A      0.338474  
      64A      0.344805    65A      0.348734    66A      0.366487  
      67A      0.381555    68A      0.402853    69A      0.403256  
      70A      0.411449    71A      0.422019    72A      0.424798  
      73A      0.428271    74A      0.437033    75A      0.451192  
      76A      0.470713    77A      0.475951    78A      0.489841  
      79A      0.501617    80A      0.506557    81A      0.511695  
      82A      0.519223    83A      0.545471    84A      0.550030  
      85A      0.561975    86A      0.565970    87A      0.570914  
      88A      0.589256    89A      0.594715    90A      0.603442  
      91A      0.615468    92A      0.625419    93A      0.646989  
      94A      0.655405    95A      0.670159    96A      0.675352  
      97A      0.679890    98A      0.690324    99A      0.700723  
     100A      0.717833   101A      0.727542   102A      0.728276  
     103A      0.752331   104A      0.756141   105A      0.786278  
     106A      0.796073   107A      0.805376   108A      0.808296  
     109A      0.810425   110A      0.834757   111A      0.855478  
     112A      0.860829   113A      0.871649   114A      0.874320  
     115A      0.895311   116A      0.903809   117A      0.907273  
     118A      0.911929   119A      0.914629   120A      0.929330  
     121A      0.941685   122A      0.957874   123A      0.977431  
     124A      0.986531   125A      0.991885   126A      1.006669  
     127A      1.015037   128A      1.028732   129A      1.031190  
     130A      1.042648   131A      1.043084   132A      1.054756  
     133A      1.064892   134A      1.075176   135A      1.077046  
     136A      1.091067   137A      1.093752   138A      1.097798  
     139A      1.115764   140A      1.116688   141A      1.134473  
     142A      1.146070   143A      1.155999   144A      1.157982  
     145A      1.188258   146A      1.189911   147A      1.206419  
     148A      1.226661   149A      1.233936   150A      1.241449  
     151A      1.251259   152A      1.261322   153A      1.262709  
     154A      1.281400   155A      1.312049   156A      1.313854  
     157A      1.317937   158A      1.334751   159A      1.338087  
     160A      1.373632   161A      1.382408   162A      1.414445  
     163A      1.414829   164A      1.422933   165A      1.436021  
     166A      1.436803   167A      1.460170   168A      1.464852  
     169A      1.482750   170A      1.498589   171A      1.514498  
     172A      1.530373   173A      1.541656   174A      1.566069  
     175A      1.574499   176A      1.597554   177A      1.602341  
     178A      1.607311   179A      1.631986   180A      1.655624  
     181A      1.666343   182A      1.666858   183A      1.667845  
     184A      1.686235   185A      1.711572   186A      1.724407  
     187A      1.737763   188A      1.765649   189A      1.772495  
     190A      1.774664   191A      1.799511   192A      1.828668  
     193A      1.848408   194A      1.866814   195A      1.897384  
     196A      1.909664   197A      1.922938   198A      1.963975  
     199A      1.998556   200A      2.028951   201A      2.031731  
     202A      2.045549   203A      2.054168   204A      2.098431  
     205A      2.124799   206A      2.131043   207A      2.146649  
     208A      2.159348   209A      2.177865   210A      2.200976  
     211A      2.243433   212A      2.272624   213A      2.275459  
     214A      2.279726   215A      2.301162   216A      2.316425  
     217A      2.323309   218A      2.365892   219A      2.396688  
     220A      2.407810   221A      2.430638   222A      2.434716  
     223A      2.447838   224A      2.469815   225A      2.486210  
     226A      2.527984   227A      2.537091   228A      2.539565  
     229A      2.583460   230A      2.590864   231A      2.616220  
     232A      2.634041   233A      2.634316   234A      2.677573  
     235A      2.684447   236A      2.713392   237A      2.718838  
     238A      2.744999   239A      2.752071   240A      2.773024  
     241A      2.798931   242A      2.826823   243A      2.842123  
     244A      2.860718   245A      2.929012   246A      2.936959  
     247A      2.948230   248A      2.957855   249A      2.971326  
     250A      3.028959   251A      3.068266   252A      3.078431  
     253A      3.108042   254A      3.127421   255A      3.209759  
     256A      3.214067   257A      3.216585   258A      3.250432  
     259A      3.299229   260A      3.300017   261A      3.329076  
     262A      3.391395   263A      3.411425   264A      3.417122  
     265A      3.430929   266A      3.441277   267A      3.478045  
     268A      3.483400   269A      3.555165   270A      3.621004  
     271A      3.638580   272A      3.638704   273A      3.686436  
     274A      3.693048   275A      3.704171   276A      3.752997  
     277A      3.781407   278A      3.785267   279A      3.811568  
     280A      3.884621   281A      3.888878   282A      3.906611  
     283A      3.937481   284A      3.943602   285A      3.987907  
     286A      4.046445   287A      4.111727   288A      4.126954  
     289A      4.132459   290A      4.136267   291A      4.153893  
     292A      4.185640   293A      4.204683   294A      4.256934  
     295A      4.274391   296A      4.279383   297A      4.306179  
     298A      4.329050   299A      4.333224   300A      4.345409  
     301A      4.356915   302A      4.389595   303A      4.427905  
     304A      4.428523   305A      4.472713   306A      4.480030  
     307A      4.496262   308A      4.512417   309A      4.515559  
     310A      4.541593   311A      4.578962   312A      4.620168  
     313A      4.639985   314A      4.678727   315A      4.725625  
     316A      4.762197   317A      4.777730   318A      4.810133  
     319A      4.812489   320A      4.849733   321A      4.871048  
     322A      4.884561   323A      4.896815   324A      4.910306  
     325A      4.936321   326A      4.988372   327A      4.993577  
     328A      5.084431   329A      5.089317   330A      5.114421  
     331A      5.126171   332A      5.146782   333A      5.163848  
     334A      5.166106   335A      5.214010   336A      5.248873  
     337A      5.272995   338A      5.309655   339A      5.337849  
     340A      5.355023   341A      5.401123   342A      5.424844  
     343A      5.439573   344A      5.469412   345A      5.474461  
     346A      5.488413   347A      5.512595   348A      5.597915  
     349A      5.627974   350A      5.657313   351A      5.668300  
     352A      5.691964   353A      5.765739   354A      5.785546  
     355A      5.811955   356A      5.824182   357A      5.869333  
     358A      5.893954   359A      5.898350   360A      5.935904  
     361A      6.006536   362A      6.012115   363A      6.174223  
     364A      6.187118   365A      6.202682   366A      6.215840  
     367A      6.247889   368A      6.405532   369A      6.462628  
     370A      6.568567   371A      6.601896   372A      6.607581  
     373A      6.627425   374A      6.660038   375A      6.779051  
     376A      6.848403   377A      6.882207   378A      6.919846  
     379A      6.929859   380A      6.984578   381A      7.012493  
     382A      7.057633   383A      7.111153   384A      7.144769  
     385A      7.185140   386A      7.206103   387A      7.340503  
     388A      7.409606   389A      7.425469   390A      7.444018  
     391A      7.564936   392A      7.588769   393A      7.683462  
     394A      7.763941   395A      7.812673   396A      7.833642  
     397A      7.866318   398A      7.917276   399A      7.983949  
     400A      8.009609   401A      8.250079   402A      8.332747  
     403A      8.363103   404A      8.639229   405A      8.862116  
     406A      8.980085   407A      9.288205   408A      9.419168  
     409A     17.059747   410A     17.536575   411A     18.486839  
     412A     19.309315   413A     19.442381   414A     20.709583  

    Final Occupation by Irrep:
              A 
    DOCC [    24 ]

  @DF-RHF Final Energy:  -337.68805468076368

   => Energetics <=

    Nuclear Repulsion Energy =            256.0797768187987344
    One-Electron Energy =                -969.8380964565538989
    Two-Electron Energy =                 376.0702649569915366
    Total Energy =                       -337.6880546807636847

Computation Completed


Properties will be evaluated at   0.000000,   0.000000,   0.000000 [a0]

Properties computed using the SCF density matrix

  Nuclear Dipole Moment: [e a0]
     X:     0.7523      Y:    -0.1038      Z:    -0.0000

  Electronic Dipole Moment: [e a0]
     X:    -0.9134      Y:    -0.2114      Z:     0.0000

  Dipole Moment: [e a0]
     X:    -0.1611      Y:    -0.3152      Z:     0.0000     Total:     0.3540

  Dipole Moment: [D]
     X:    -0.4095      Y:    -0.8011      Z:     0.0000     Total:     0.8997


*** tstop() called on node51.bme.utexas.edu at Tue Sep 10 11:41:09 2019
Module time:
	user time   =      81.55 seconds =       1.36 minutes
	system time =       1.81 seconds =       0.03 minutes
	total time  =         23 seconds =       0.38 minutes
Total time:
	user time   =      81.55 seconds =       1.36 minutes
	system time =       1.81 seconds =       0.03 minutes
	total time  =         23 seconds =       0.38 minutes

  //>>>>>>>>>>>>>>>>>>>>>>>>>>>>>>>>>>>//
  //            Monomer A HF           //
  //<<<<<<<<<<<<<<<<<<<<<<<<<<<<<<<<<<<//


*** tstart() called on node51.bme.utexas.edu
*** at Tue Sep 10 11:41:09 2019

   => Loading Basis Set <=

    Name: AUG-CC-PVTZ
    Role: ORBITAL
    Keyword: BASIS
    atoms 1, 7             entry C          line   235 file /home/xy3866/psi4conda/share/psi4/basis/aug-cc-pvtz.gbs 
    atoms 2, 5-6, 8, 11-12 entry H          line    36 file /home/xy3866/psi4conda/share/psi4/basis/aug-cc-pvtz.gbs 
    atoms 3, 9             entry O          line   327 file /home/xy3866/psi4conda/share/psi4/basis/aug-cc-pvtz.gbs 
    atoms 4, 10            entry N          line   281 file /home/xy3866/psi4conda/share/psi4/basis/aug-cc-pvtz.gbs 


         ---------------------------------------------------------
                                   SCF
               by Justin Turney, Rob Parrish, Andy Simmonett
                          and Daniel G. A. Smith
                              RHF Reference
                        4 Threads,  30517 MiB Core
         ---------------------------------------------------------

  ==> Geometry <==

    Molecular point group: c1
    Full point group: C1

    Geometry (in Angstrom), charge = 0, multiplicity = 1:

       Center              X                  Y                   Z               Mass       
    ------------   -----------------  -----------------  -----------------  -----------------
         C            1.568550183616    -0.276620887869     0.000003155365    12.000000000000
         H            2.663272183616    -0.368148887869    -0.000003844635     1.007825032230
         O            0.846695183616    -1.269309887869    -0.000000844635    15.994914619570
         N            1.141335183616     0.995034112131     0.000000155365    14.003074004430
         H            0.142993183616     1.206641112131     0.000000155365     1.007825032230
         H            2.672672383616     1.620664712131    -0.000003744635     1.007825032230
      Gh(C)          -1.587807616384     0.279277712131     0.000000355365    12.000000000000
      Gh(H)          -2.682529616384     0.370805712131    -0.000001644635     1.007825032230
      Gh(O)          -0.865952616384     1.271966712131    -0.000000644635    15.994914619570
      Gh(N)          -1.160592616384    -0.992377287869    -0.000000644635    14.003074004430
      Gh(H)          -0.162250616384    -1.203984287869    -0.000000644635     1.007825032230
      Gh(H)          -1.831663616384    -1.736693287869    -0.000001644635     1.007825032230

  Running in c1 symmetry.

  Rotational constants: A =      0.18923  B =      0.11520  C =      0.07161 [cm^-1]
  Rotational constants: A =   5672.88513  B =   3453.68290  C =   2146.73756 [MHz]
  Nuclear repulsion =   69.423330798076336

  Charge       = 0
  Multiplicity = 1
  Electrons    = 24
  Nalpha       = 12
  Nbeta        = 12

  ==> Algorithm <==

  SCF Algorithm Type is DF.
  DIIS enabled.
  MOM disabled.
  Fractional occupation disabled.
  Guess Type is SAD.
  Energy threshold   = 1.00e-08
  Density threshold  = 1.00e-08
  Integral threshold = 0.00e+00

  ==> Primary Basis <==

  Basis Set: AUG-CC-PVTZ
    Blend: AUG-CC-PVTZ
    Number of shells: 138
    Number of basis function: 414
    Number of Cartesian functions: 480
    Spherical Harmonics?: true
    Max angular momentum: 3

   => Loading Basis Set <=

    Name: (AUG-CC-PVTZ AUX)
    Role: JKFIT
    Keyword: DF_BASIS_SCF
    atoms 1, 7             entry C          line   162 file /home/xy3866/psi4conda/share/psi4/basis/aug-cc-pvtz-jkfit.gbs 
    atoms 2, 5-6, 8, 11-12 entry H          line    70 file /home/xy3866/psi4conda/share/psi4/basis/aug-cc-pvtz-jkfit.gbs 
    atoms 3, 9             entry O          line   286 file /home/xy3866/psi4conda/share/psi4/basis/aug-cc-pvtz-jkfit.gbs 
    atoms 4, 10            entry N          line   224 file /home/xy3866/psi4conda/share/psi4/basis/aug-cc-pvtz-jkfit.gbs 

  ==> Pre-Iterations <==

   -------------------------------------------------------
    Irrep   Nso     Nmo     Nalpha   Nbeta   Ndocc  Nsocc
   -------------------------------------------------------
     A        414     414       0       0       0       0
   -------------------------------------------------------
    Total     414     414      12      12      12       0
   -------------------------------------------------------

  ==> Integral Setup <==

  ==> DiskDFJK: Density-Fitted J/K Matrices <==

    J tasked:                  Yes
    K tasked:                  Yes
    wK tasked:                  No
    OpenMP threads:              4
    Integrals threads:           4
    Memory [MiB]:            22888
    Algorithm:                Core
    Integral Cache:           LOAD
    Schwarz Cutoff:          1E-12
    Fitting Condition:       1E-10

   => Auxiliary Basis Set <=

  Basis Set: (AUG-CC-PVTZ AUX)
    Blend: AUG-CC-PVTZ-JKFIT
    Number of shells: 264
    Number of basis function: 900
    Number of Cartesian functions: 1116
    Spherical Harmonics?: true
    Max angular momentum: 4

  Minimum eigenvalue in the overlap matrix is 1.5259456727E-05.
  Using Symmetric Orthogonalization.

  SCF Guess: Superposition of Atomic Densities via on-the-fly atomic UHF.

  ==> Iterations <==

                           Total Energy        Delta E     RMS |[F,P]|

   @DF-RHF iter SAD:  -167.92925358469861   -1.67929e+02   0.00000e+00 
   @DF-RHF iter   1:  -168.67116040910807   -7.41907e-01   1.36717e-03 DIIS
   @DF-RHF iter   2:  -168.75337388476606   -8.22135e-02   1.12439e-03 DIIS
   @DF-RHF iter   3:  -168.83501375190809   -8.16399e-02   1.38598e-04 DIIS
   @DF-RHF iter   4:  -168.83812195963597   -3.10821e-03   7.79142e-05 DIIS
   @DF-RHF iter   5:  -168.83912120935926   -9.99250e-04   2.97159e-05 DIIS
   @DF-RHF iter   6:  -168.83940559046016   -2.84381e-04   1.15997e-05 DIIS
   @DF-RHF iter   7:  -168.83945938182941   -5.37914e-05   4.34091e-06 DIIS
   @DF-RHF iter   8:  -168.83946470395890   -5.32213e-06   1.58192e-06 DIIS
   @DF-RHF iter   9:  -168.83946545766668   -7.53708e-07   4.98814e-07 DIIS
   @DF-RHF iter  10:  -168.83946553731977   -7.96531e-08   1.25966e-07 DIIS
   @DF-RHF iter  11:  -168.83946554295818   -5.63841e-09   2.64822e-08 DIIS
   @DF-RHF iter  12:  -168.83946554317751   -2.19330e-10   5.72857e-09 DIIS
  Energy and wave function converged.


  ==> Post-Iterations <==

    Orbital Energies [Eh]
    ---------------------

    Doubly Occupied:                                                      

       1A    -20.528063     2A    -15.630509     3A    -11.354442  
       4A     -1.375494     5A     -1.190721     6A     -0.846721  
       7A     -0.683958     8A     -0.654044     9A     -0.569157  
      10A     -0.517873    11A     -0.429655    12A     -0.416475  

    Virtual:                                                              

      13A     -0.014739    14A      0.028072    15A      0.040682  
      16A      0.044565    17A      0.057891    18A      0.059316  
      19A      0.070072    20A      0.085427    21A      0.086505  
      22A      0.098309    23A      0.099450    24A      0.119341  
      25A      0.134790    26A      0.136253    27A      0.144194  
      28A      0.146232    29A      0.155111    30A      0.161434  
      31A      0.168846    32A      0.179779    33A      0.192547  
      34A      0.202337    35A      0.209752    36A      0.222913  
      37A      0.227720    38A      0.247829    39A      0.251634  
      40A      0.255532    41A      0.255759    42A      0.268599  
      43A      0.278791    44A      0.295458    45A      0.299380  
      46A      0.304505    47A      0.310223    48A      0.320647  
      49A      0.327900    50A      0.330303    51A      0.340174  
      52A      0.357431    53A      0.366413    54A      0.368651  
      55A      0.383497    56A      0.388135    57A      0.406484  
      58A      0.409651    59A      0.414276    60A      0.420998  
      61A      0.425005    62A      0.436586    63A      0.449232  
      64A      0.455501    65A      0.456852    66A      0.480342  
      67A      0.488958    68A      0.497279    69A      0.507403  
      70A      0.513165    71A      0.529319    72A      0.552599  
      73A      0.567971    74A      0.573975    75A      0.582760  
      76A      0.590415    77A      0.595871    78A      0.616093  
      79A      0.625381    80A      0.634002    81A      0.645414  
      82A      0.650313    83A      0.669913    84A      0.673472  
      85A      0.679727    86A      0.709573    87A      0.722772  
      88A      0.748254    89A      0.749605    90A      0.756193  
      91A      0.760087    92A      0.783595    93A      0.788327  
      94A      0.808084    95A      0.810930    96A      0.842054  
      97A      0.843987    98A      0.857091    99A      0.865043  
     100A      0.866593   101A      0.879558   102A      0.890674  
     103A      0.893669   104A      0.903341   105A      0.927061  
     106A      0.927710   107A      0.944446   108A      0.949887  
     109A      0.954236   110A      0.963023   111A      0.963796  
     112A      0.977477   113A      0.991963   114A      1.000941  
     115A      1.006420   116A      1.009250   117A      1.025138  
     118A      1.028016   119A      1.049490   120A      1.053214  
     121A      1.080737   122A      1.085748   123A      1.092187  
     124A      1.107898   125A      1.117298   126A      1.118754  
     127A      1.132353   128A      1.138005   129A      1.158744  
     130A      1.164152   131A      1.173902   132A      1.189774  
     133A      1.201428   134A      1.204862   135A      1.233299  
     136A      1.246234   137A      1.250093   138A      1.276801  
     139A      1.283286   140A      1.296255   141A      1.304860  
     142A      1.324818   143A      1.333277   144A      1.354963  
     145A      1.374227   146A      1.377044   147A      1.397471  
     148A      1.408515   149A      1.418818   150A      1.427574  
     151A      1.440070   152A      1.472979   153A      1.490635  
     154A      1.504317   155A      1.518477   156A      1.534369  
     157A      1.544304   158A      1.570851   159A      1.583563  
     160A      1.583813   161A      1.598955   162A      1.631645  
     163A      1.635287   164A      1.637604   165A      1.674533  
     166A      1.676861   167A      1.689780   168A      1.692765  
     169A      1.710720   170A      1.724823   171A      1.725473  
     172A      1.744038   173A      1.754033   174A      1.776384  
     175A      1.782365   176A      1.789764   177A      1.815827  
     178A      1.826083   179A      1.840180   180A      1.845048  
     181A      1.887037   182A      1.891568   183A      1.916697  
     184A      1.944608   185A      1.954311   186A      1.965279  
     187A      1.974463   188A      2.010875   189A      2.020953  
     190A      2.036690   191A      2.073859   192A      2.086211  
     193A      2.143085   194A      2.165229   195A      2.177265  
     196A      2.185538   197A      2.207411   198A      2.227670  
     199A      2.249410   200A      2.281814   201A      2.297592  
     202A      2.328953   203A      2.331612   204A      2.357686  
     205A      2.379679   206A      2.425775   207A      2.456729  
     208A      2.490510   209A      2.495038   210A      2.495924  
     211A      2.524029   212A      2.555989   213A      2.574502  
     214A      2.576879   215A      2.610272   216A      2.636682  
     217A      2.656209   218A      2.670001   219A      2.685231  
     220A      2.716945   221A      2.737377   222A      2.739777  
     223A      2.764297   224A      2.766712   225A      2.772410  
     226A      2.839632   227A      2.843772   228A      2.844307  
     229A      2.869372   230A      2.922553   231A      2.925374  
     232A      2.937455   233A      2.972630   234A      2.997099  
     235A      3.010276   236A      3.027625   237A      3.091493  
     238A      3.097461   239A      3.117272   240A      3.140034  
     241A      3.174255   242A      3.180390   243A      3.228996  
     244A      3.230630   245A      3.254006   246A      3.275214  
     247A      3.360964   248A      3.362656   249A      3.382848  
     250A      3.397676   251A      3.421249   252A      3.462764  
     253A      3.485397   254A      3.494268   255A      3.560400  
     256A      3.602318   257A      3.641582   258A      3.646417  
     259A      3.659779   260A      3.705555   261A      3.723863  
     262A      3.729249   263A      3.783402   264A      3.796262  
     265A      3.804701   266A      3.890868   267A      3.906202  
     268A      3.921925   269A      3.951557   270A      3.991625  
     271A      4.013442   272A      4.092233   273A      4.104336  
     274A      4.118380   275A      4.130774   276A      4.146709  
     277A      4.161210   278A      4.203942   279A      4.225644  
     280A      4.248377   281A      4.267200   282A      4.312598  
     283A      4.358139   284A      4.368851   285A      4.409458  
     286A      4.466116   287A      4.504100   288A      4.511964  
     289A      4.528001   290A      4.576740   291A      4.577794  
     292A      4.601201   293A      4.616192   294A      4.653834  
     295A      4.679101   296A      4.691801   297A      4.732579  
     298A      4.812289   299A      4.858173   300A      4.872858  
     301A      4.878647   302A      4.886885   303A      4.927852  
     304A      4.978889   305A      5.004408   306A      5.006451  
     307A      5.010126   308A      5.046328   309A      5.059532  
     310A      5.071195   311A      5.109727   312A      5.151821  
     313A      5.190431   314A      5.207313   315A      5.225155  
     316A      5.246864   317A      5.267166   318A      5.272289  
     319A      5.347164   320A      5.357802   321A      5.368795  
     322A      5.380991   323A      5.458398   324A      5.462645  
     325A      5.470124   326A      5.515864   327A      5.542333  
     328A      5.576675   329A      5.610895   330A      5.632926  
     331A      5.642737   332A      5.738881   333A      5.770708  
     334A      5.800103   335A      5.806249   336A      5.842552  
     337A      5.888973   338A      5.939018   339A      5.951521  
     340A      5.978484   341A      6.031435   342A      6.060278  
     343A      6.074070   344A      6.149951   345A      6.224245  
     346A      6.270452   347A      6.362090   348A      6.454711  
     349A      6.482982   350A      6.527906   351A      6.641403  
     352A      6.656599   353A      6.711497   354A      6.736196  
     355A      6.742453   356A      6.834612   357A      6.838702  
     358A      6.912125   359A      6.950798   360A      6.955812  
     361A      6.990985   362A      7.042671   363A      7.076610  
     364A      7.170885   365A      7.232492   366A      7.379134  
     367A      7.403995   368A      7.414515   369A      7.440888  
     370A      7.576978   371A      7.579148   372A      7.618147  
     373A      7.735007   374A      7.736036   375A      7.780964  
     376A      7.827919   377A      7.878288   378A      7.934257  
     379A      7.945815   380A      8.132403   381A      8.180202  
     382A      8.182637   383A      8.262925   384A      8.400369  
     385A      8.475279   386A      8.499513   387A      8.616902  
     388A      8.621896   389A      8.808953   390A      9.113091  
     391A      9.189426   392A      9.449005   393A      9.562347  
     394A      9.774989   395A      9.853612   396A      9.945649  
     397A     10.041293   398A     10.386443   399A     10.726420  
     400A     11.062807   401A     11.268347   402A     11.465609  
     403A     12.070444   404A     12.070678   405A     12.970647  
     406A     13.386231   407A     13.752950   408A     14.696390  
     409A     17.976876   410A     18.389137   411A     19.633623  
     412A     53.586061   413A     64.272430   414A     70.630586  

    Final Occupation by Irrep:
              A 
    DOCC [    12 ]

  @DF-RHF Final Energy:  -168.83946554317751

   => Energetics <=

    Nuclear Repulsion Energy =             69.4233307980763357
    One-Electron Energy =                -368.1313702104707204
    Two-Electron Energy =                 129.8685738692168741
    Total Energy =                       -168.8394655431775107

Computation Completed


Properties will be evaluated at   0.000000,   0.000000,   0.000000 [a0]

Properties computed using the SCF density matrix

  Nuclear Dipole Moment: [e a0]
     X:    56.0363      Y:    -4.5161      Z:     0.0000

  Electronic Dipole Moment: [e a0]
     X:   -55.1059      Y:     6.0244      Z:    -0.0000

  Dipole Moment: [e a0]
     X:     0.9304      Y:     1.5083      Z:    -0.0000     Total:     1.7722

  Dipole Moment: [D]
     X:     2.3648      Y:     3.8337      Z:    -0.0000     Total:     4.5044


*** tstop() called on node51.bme.utexas.edu at Tue Sep 10 11:41:21 2019
Module time:
	user time   =      44.10 seconds =       0.74 minutes
	system time =       1.08 seconds =       0.02 minutes
	total time  =         12 seconds =       0.20 minutes
Total time:
	user time   =     125.69 seconds =       2.09 minutes
	system time =       2.89 seconds =       0.05 minutes
	total time  =         35 seconds =       0.58 minutes

  //>>>>>>>>>>>>>>>>>>>>>>>>>>>>>>>>>>>//
  //            Monomer B HF           //
  //<<<<<<<<<<<<<<<<<<<<<<<<<<<<<<<<<<<//


*** tstart() called on node51.bme.utexas.edu
*** at Tue Sep 10 11:41:21 2019

   => Loading Basis Set <=

    Name: AUG-CC-PVTZ
    Role: ORBITAL
    Keyword: BASIS
    atoms 1, 7             entry C          line   235 file /home/xy3866/psi4conda/share/psi4/basis/aug-cc-pvtz.gbs 
    atoms 2, 5-6, 8, 11-12 entry H          line    36 file /home/xy3866/psi4conda/share/psi4/basis/aug-cc-pvtz.gbs 
    atoms 3, 9             entry O          line   327 file /home/xy3866/psi4conda/share/psi4/basis/aug-cc-pvtz.gbs 
    atoms 4, 10            entry N          line   281 file /home/xy3866/psi4conda/share/psi4/basis/aug-cc-pvtz.gbs 


         ---------------------------------------------------------
                                   SCF
               by Justin Turney, Rob Parrish, Andy Simmonett
                          and Daniel G. A. Smith
                              RHF Reference
                        4 Threads,  30517 MiB Core
         ---------------------------------------------------------

  ==> Geometry <==

    Molecular point group: c1
    Full point group: C1

    Geometry (in Angstrom), charge = 0, multiplicity = 1:

       Center              X                  Y                   Z               Mass       
    ------------   -----------------  -----------------  -----------------  -----------------
      Gh(C)           1.568550183616    -0.276620887869     0.000003155365    12.000000000000
      Gh(H)           2.663272183616    -0.368148887869    -0.000003844635     1.007825032230
      Gh(O)           0.846695183616    -1.269309887869    -0.000000844635    15.994914619570
      Gh(N)           1.141335183616     0.995034112131     0.000000155365    14.003074004430
      Gh(H)           0.142993183616     1.206641112131     0.000000155365     1.007825032230
      Gh(H)           2.672672383616     1.620664712131    -0.000003744635     1.007825032230
         C           -1.587807616384     0.279277712131     0.000000355365    12.000000000000
         H           -2.682529616384     0.370805712131    -0.000001644635     1.007825032230
         O           -0.865952616384     1.271966712131    -0.000000644635    15.994914619570
         N           -1.160592616384    -0.992377287869    -0.000000644635    14.003074004430
         H           -0.162250616384    -1.203984287869    -0.000000644635     1.007825032230
         H           -1.831663616384    -1.736693287869    -0.000001644635     1.007825032230

  Running in c1 symmetry.

  Rotational constants: A =      0.18923  B =      0.11520  C =      0.07161 [cm^-1]
  Rotational constants: A =   5672.88513  B =   3453.68290  C =   2146.73756 [MHz]
  Nuclear repulsion =   71.161114512123262

  Charge       = 0
  Multiplicity = 1
  Electrons    = 24
  Nalpha       = 12
  Nbeta        = 12

  ==> Algorithm <==

  SCF Algorithm Type is DF.
  DIIS enabled.
  MOM disabled.
  Fractional occupation disabled.
  Guess Type is SAD.
  Energy threshold   = 1.00e-08
  Density threshold  = 1.00e-08
  Integral threshold = 0.00e+00

  ==> Primary Basis <==

  Basis Set: AUG-CC-PVTZ
    Blend: AUG-CC-PVTZ
    Number of shells: 138
    Number of basis function: 414
    Number of Cartesian functions: 480
    Spherical Harmonics?: true
    Max angular momentum: 3

   => Loading Basis Set <=

    Name: (AUG-CC-PVTZ AUX)
    Role: JKFIT
    Keyword: DF_BASIS_SCF
    atoms 1, 7             entry C          line   162 file /home/xy3866/psi4conda/share/psi4/basis/aug-cc-pvtz-jkfit.gbs 
    atoms 2, 5-6, 8, 11-12 entry H          line    70 file /home/xy3866/psi4conda/share/psi4/basis/aug-cc-pvtz-jkfit.gbs 
    atoms 3, 9             entry O          line   286 file /home/xy3866/psi4conda/share/psi4/basis/aug-cc-pvtz-jkfit.gbs 
    atoms 4, 10            entry N          line   224 file /home/xy3866/psi4conda/share/psi4/basis/aug-cc-pvtz-jkfit.gbs 

  ==> Pre-Iterations <==

   -------------------------------------------------------
    Irrep   Nso     Nmo     Nalpha   Nbeta   Ndocc  Nsocc
   -------------------------------------------------------
     A        414     414       0       0       0       0
   -------------------------------------------------------
    Total     414     414      12      12      12       0
   -------------------------------------------------------

  ==> Integral Setup <==

  ==> DiskDFJK: Density-Fitted J/K Matrices <==

    J tasked:                  Yes
    K tasked:                  Yes
    wK tasked:                  No
    OpenMP threads:              4
    Integrals threads:           4
    Memory [MiB]:            22888
    Algorithm:                Core
    Integral Cache:           LOAD
    Schwarz Cutoff:          1E-12
    Fitting Condition:       1E-10

   => Auxiliary Basis Set <=

  Basis Set: (AUG-CC-PVTZ AUX)
    Blend: AUG-CC-PVTZ-JKFIT
    Number of shells: 264
    Number of basis function: 900
    Number of Cartesian functions: 1116
    Spherical Harmonics?: true
    Max angular momentum: 4

  Minimum eigenvalue in the overlap matrix is 1.5259456727E-05.
  Using Symmetric Orthogonalization.

  SCF Guess: Superposition of Atomic Densities via on-the-fly atomic UHF.

  ==> Iterations <==

                           Total Energy        Delta E     RMS |[F,P]|

   @DF-RHF iter SAD:  -168.20327229086442   -1.68203e+02   0.00000e+00 
   @DF-RHF iter   1:  -168.87990519242354   -6.76633e-01   1.29332e-03 DIIS
   @DF-RHF iter   2:  -168.95805415920887   -7.81490e-02   8.83345e-04 DIIS
   @DF-RHF iter   3:  -169.00176778601627   -4.37136e-02   1.26834e-04 DIIS
   @DF-RHF iter   4:  -169.00320768113170   -1.43990e-03   5.48169e-05 DIIS
   @DF-RHF iter   5:  -169.00351112760953   -3.03446e-04   1.09842e-05 DIIS
   @DF-RHF iter   6:  -169.00354117365566   -3.00460e-05   5.23611e-06 DIIS
   @DF-RHF iter   7:  -169.00354749074728   -6.31709e-06   2.11061e-06 DIIS
   @DF-RHF iter   8:  -169.00354860255078   -1.11180e-06   6.38343e-07 DIIS
   @DF-RHF iter   9:  -169.00354870703043   -1.04480e-07   1.75955e-07 DIIS
   @DF-RHF iter  10:  -169.00354871520375   -8.17332e-09   4.36836e-08 DIIS
   @DF-RHF iter  11:  -169.00354871561484   -4.11092e-10   7.80300e-09 DIIS
  Energy and wave function converged.


  ==> Post-Iterations <==

    Orbital Energies [Eh]
    ---------------------

    Doubly Occupied:                                                      

       1A    -20.526795     2A    -15.602026     3A    -11.356519  
       4A     -1.376866     5A     -1.227326     6A     -0.854872  
       7A     -0.756166     8A     -0.677301     9A     -0.603126  
      10A     -0.571920    11A     -0.435183    12A     -0.422103  

    Virtual:                                                              

      13A      0.018608    14A      0.030355    15A      0.040366  
      16A      0.056120    17A      0.057237    18A      0.069678  
      19A      0.083671    20A      0.087670    21A      0.093163  
      22A      0.100238    23A      0.114632    24A      0.124614  
      25A      0.131969    26A      0.133866    27A      0.146848  
      28A      0.154308    29A      0.155091    30A      0.166090  
      31A      0.172480    32A      0.180638    33A      0.200270  
      34A      0.204074    35A      0.215904    36A      0.218088  
      37A      0.229359    38A      0.252189    39A      0.254924  
      40A      0.263188    41A      0.264001    42A      0.277188  
      43A      0.286930    44A      0.294438    45A      0.308811  
      46A      0.311037    47A      0.313687    48A      0.328023  
      49A      0.331307    50A      0.339415    51A      0.346827  
      52A      0.356282    53A      0.362592    54A      0.378339  
      55A      0.382561    56A      0.395476    57A      0.401739  
      58A      0.402876    59A      0.414865    60A      0.425076  
      61A      0.426105    62A      0.435001    63A      0.446072  
      64A      0.463788    65A      0.468381    66A      0.476143  
      67A      0.489899    68A      0.497239    69A      0.503316  
      70A      0.515723    71A      0.527098    72A      0.550140  
      73A      0.559888    74A      0.564178    75A      0.568627  
      76A      0.577461    77A      0.596469    78A      0.603367  
      79A      0.614292    80A      0.636437    81A      0.643932  
      82A      0.668101    83A      0.669979    84A      0.679900  
      85A      0.702600    86A      0.705281    87A      0.737632  
      88A      0.746923    89A      0.751807    90A      0.753617  
      91A      0.756410    92A      0.767231    93A      0.785259  
      94A      0.810159    95A      0.814218    96A      0.838841  
      97A      0.849143    98A      0.855899    99A      0.863621  
     100A      0.868990   101A      0.893934   102A      0.903455  
     103A      0.904684   104A      0.912841   105A      0.920666  
     106A      0.933431   107A      0.933956   108A      0.969316  
     109A      0.970834   110A      0.977998   111A      0.983507  
     112A      0.991778   113A      0.991910   114A      1.006285  
     115A      1.016817   116A      1.022466   117A      1.037945  
     118A      1.044164   119A      1.072297   120A      1.074050  
     121A      1.091232   122A      1.097751   123A      1.107859  
     124A      1.108770   125A      1.109117   126A      1.128462  
     127A      1.135629   128A      1.137038   129A      1.153394  
     130A      1.158132   131A      1.168136   132A      1.181929  
     133A      1.198588   134A      1.202667   135A      1.208201  
     136A      1.237670   137A      1.244633   138A      1.279513  
     139A      1.282335   140A      1.289267   141A      1.289910  
     142A      1.317770   143A      1.332824   144A      1.349569  
     145A      1.352664   146A      1.371686   147A      1.384072  
     148A      1.411276   149A      1.419046   150A      1.435684  
     151A      1.435925   152A      1.462042   153A      1.471033  
     154A      1.492279   155A      1.524730   156A      1.540843  
     157A      1.546441   158A      1.564964   159A      1.574081  
     160A      1.575356   161A      1.586778   162A      1.612460  
     163A      1.622155   164A      1.650105   165A      1.661643  
     166A      1.676411   167A      1.686718   168A      1.691643  
     169A      1.698452   170A      1.716362   171A      1.743575  
     172A      1.749420   173A      1.755399   174A      1.764590  
     175A      1.797339   176A      1.807344   177A      1.818177  
     178A      1.839957   179A      1.841533   180A      1.879965  
     181A      1.909841   182A      1.928243   183A      1.931064  
     184A      1.965275   185A      1.970886   186A      1.994025  
     187A      2.016818   188A      2.017067   189A      2.032312  
     190A      2.048420   191A      2.092859   192A      2.095211  
     193A      2.109488   194A      2.146030   195A      2.189001  
     196A      2.189083   197A      2.190713   198A      2.247243  
     199A      2.255826   200A      2.292286   201A      2.295996  
     202A      2.314422   203A      2.334727   204A      2.383797  
     205A      2.403727   206A      2.411411   207A      2.413525  
     208A      2.424678   209A      2.458001   210A      2.458946  
     211A      2.505729   212A      2.540945   213A      2.547245  
     214A      2.577326   215A      2.582470   216A      2.586320  
     217A      2.610087   218A      2.646035   219A      2.656588  
     220A      2.685161   221A      2.711203   222A      2.714181  
     223A      2.744161   224A      2.770690   225A      2.779898  
     226A      2.808085   227A      2.822075   228A      2.857240  
     229A      2.864585   230A      2.870979   231A      2.925051  
     232A      2.948058   233A      2.954082   234A      2.972703  
     235A      2.985018   236A      3.036803   237A      3.042286  
     238A      3.083771   239A      3.109163   240A      3.115092  
     241A      3.151103   242A      3.166889   243A      3.217829  
     244A      3.228772   245A      3.257879   246A      3.272394  
     247A      3.341693   248A      3.380149   249A      3.380579  
     250A      3.426838   251A      3.444428   252A      3.478378  
     253A      3.509852   254A      3.570330   255A      3.596164  
     256A      3.610354   257A      3.645984   258A      3.651492  
     259A      3.686720   260A      3.733301   261A      3.748309  
     262A      3.771492   263A      3.809111   264A      3.832796  
     265A      3.889675   266A      3.931789   267A      3.972361  
     268A      3.997020   269A      4.084605   270A      4.104264  
     271A      4.105379   272A      4.132918   273A      4.137027  
     274A      4.178279   275A      4.201881   276A      4.212740  
     277A      4.267817   278A      4.270526   279A      4.299136  
     280A      4.330216   281A      4.343605   282A      4.384009  
     283A      4.421218   284A      4.422302   285A      4.449845  
     286A      4.461105   287A      4.474760   288A      4.507468  
     289A      4.537905   290A      4.549815   291A      4.595434  
     292A      4.601911   293A      4.611470   294A      4.656207  
     295A      4.701248   296A      4.715373   297A      4.720839  
     298A      4.806976   299A      4.809942   300A      4.853600  
     301A      4.876204   302A      4.904895   303A      4.932290  
     304A      4.955417   305A      4.959335   306A      4.979386  
     307A      5.024229   308A      5.051784   309A      5.070356  
     310A      5.075274   311A      5.101048   312A      5.171739  
     313A      5.211633   314A      5.212144   315A      5.214692  
     316A      5.225864   317A      5.261385   318A      5.281078  
     319A      5.309640   320A      5.313486   321A      5.339196  
     322A      5.406628   323A      5.434219   324A      5.446617  
     325A      5.469040   326A      5.490092   327A      5.551866  
     328A      5.584164   329A      5.613455   330A      5.634051  
     331A      5.704921   332A      5.742716   333A      5.774896  
     334A      5.790186   335A      5.814142   336A      5.900121  
     337A      5.922159   338A      5.928669   339A      5.951574  
     340A      5.973515   341A      6.004991   342A      6.042209  
     343A      6.113353   344A      6.173004   345A      6.179088  
     346A      6.238197   347A      6.263227   348A      6.379384  
     349A      6.448594   350A      6.504041   351A      6.593015  
     352A      6.624650   353A      6.670410   354A      6.736407  
     355A      6.755007   356A      6.776711   357A      6.863980  
     358A      6.904354   359A      6.943445   360A      6.966804  
     361A      6.972141   362A      7.023895   363A      7.072180  
     364A      7.205087   365A      7.229052   366A      7.342868  
     367A      7.394926   368A      7.458750   369A      7.476935  
     370A      7.488772   371A      7.604248   372A      7.620787  
     373A      7.688937   374A      7.692266   375A      7.742992  
     376A      7.790712   377A      7.830207   378A      7.911638  
     379A      7.960323   380A      7.961296   381A      8.035384  
     382A      8.186363   383A      8.254161   384A      8.286847  
     385A      8.377397   386A      8.465959   387A      8.488767  
     388A      8.617423   389A      8.664352   390A      8.952600  
     391A      9.134795   392A      9.214274   393A      9.426591  
     394A      9.652153   395A      9.750737   396A      9.934480  
     397A      9.943993   398A     10.373402   399A     10.582230  
     400A     10.807164   401A     11.205044   402A     11.321257  
     403A     12.058307   404A     12.063740   405A     12.666962  
     406A     13.056399   407A     13.771266   408A     14.734039  
     409A     18.035385   410A     19.053602   411A     20.203633  
     412A     53.827318   413A     61.655569   414A     70.862524  

    Final Occupation by Irrep:
              A 
    DOCC [    12 ]

  @DF-RHF Final Energy:  -169.00354871561484

   => Energetics <=

    Nuclear Repulsion Energy =             71.1611145121232624
    One-Electron Energy =                -371.5089200832811684
    Two-Electron Energy =                 131.3442568555430512
    Total Energy =                       -169.0035487156148406

Computation Completed


Properties will be evaluated at   0.000000,   0.000000,   0.000000 [a0]

Properties computed using the SCF density matrix

  Nuclear Dipole Moment: [e a0]
     X:   -55.2840      Y:     4.4123      Z:    -0.0000

  Electronic Dipole Moment: [e a0]
     X:    54.6624      Y:    -6.0540      Z:     0.0000

  Dipole Moment: [e a0]
     X:    -0.6217      Y:    -1.6417      Z:    -0.0000     Total:     1.7555

  Dipole Moment: [D]
     X:    -1.5801      Y:    -4.1728      Z:    -0.0000     Total:     4.4620


*** tstop() called on node51.bme.utexas.edu at Tue Sep 10 11:41:39 2019
Module time:
	user time   =      43.90 seconds =       0.73 minutes
	system time =       1.03 seconds =       0.02 minutes
	total time  =         18 seconds =       0.30 minutes
Total time:
	user time   =     169.61 seconds =       2.83 minutes
	system time =       3.92 seconds =       0.07 minutes
	total time  =         53 seconds =       0.88 minutes
  Constructing Basis Sets for SAPT...

   => Loading Basis Set <=

    Name: (AUG-CC-PVTZ AUX)
    Role: RIFIT
    Keyword: DF_BASIS_SAPT
    atoms 1, 7             entry C          line   148 file /home/xy3866/psi4conda/share/psi4/basis/aug-cc-pvtz-ri.gbs 
    atoms 2, 5-6, 8, 11-12 entry H          line    30 file /home/xy3866/psi4conda/share/psi4/basis/aug-cc-pvtz-ri.gbs 
    atoms 3, 9             entry O          line   264 file /home/xy3866/psi4conda/share/psi4/basis/aug-cc-pvtz-ri.gbs 
    atoms 4, 10            entry N          line   206 file /home/xy3866/psi4conda/share/psi4/basis/aug-cc-pvtz-ri.gbs 


  //>>>>>>>>>>>>>>>>>>>>>>>>>>>>>>>>>>>//
  //               SAPT2+              //
  //<<<<<<<<<<<<<<<<<<<<<<<<<<<<<<<<<<<//


*** tstart() called on node51.bme.utexas.edu
*** at Tue Sep 10 11:41:39 2019

        SAPT2+  
    Ed Hohenstein
     6 June 2009

      Orbital Information
  --------------------------
    NSO        =       414
    NMO        =       414
    NRI        =       912
    NOCC A     =        12
    NOCC B     =        12
    FOCC A     =         3
    FOCC B     =         3
    NVIR A     =       402
    NVIR B     =       402

    Estimated memory usage: 1737.6 MB

    Natural Orbital Cutoff:   1.000E-06
    Disp(T3) Truncation:            Yes
    CCD (vv|vv) Truncation:         Yes
    MBPT T2 Truncation:             Yes

    Monomer A: 200 virtual orbitals dropped
    Monomer B: 204 virtual orbitals dropped

    Elst10,r            =    -0.222801526372 [Eh]
    Exch10 (S^2)        =     0.540925453368 [Eh]
    Exch10              =     0.621779964695 [Eh]
    Ind20,r (A<-B)      =    -0.196521605617 [Eh]
    Ind20,r (B<-A)      =    -0.201144728123 [Eh]
    Ind20,r             =    -0.397666333739 [Eh]
    Exch-Ind20,r (A<-B) =     0.105102113851 [Eh]
    Exch-Ind20,r (B<-A) =     0.106603313304 [Eh]
    Exch-Ind20,r        =     0.211705427155 [Eh]
    Disp20              =    -0.095718838149 [Eh]
    Disp20 (NO)         =    -0.089278147782 [Eh]
    Exch-Disp20         =     0.019447056594 [Eh]
    Elst12,r            =     0.005326041588 [Eh]
    Exch11              =     0.000127443555 [Eh]
    Exch12              =     0.012166875405 [Eh]
    Ind22               =    -0.037949939314 [Eh]
    Disp21              =     0.017732567714 [Eh]
    Disp22 (SDQ)        =    -0.002876180113 [Eh]

    (i =   1 of   9)         35 seconds
    (i =   2 of   9)         70 seconds
    (i =   3 of   9)        105 seconds
    (i =   4 of   9)        140 seconds
    (i =   5 of   9)        175 seconds
    (i =   6 of   9)        211 seconds
    (i =   7 of   9)        245 seconds
    (i =   8 of   9)        280 seconds
    (i =   9 of   9)        315 seconds

    Disp220 (T)         =    -0.007033889647 [Eh]

    (i =   1 of   9)         34 seconds
    (i =   2 of   9)         68 seconds
    (i =   3 of   9)        103 seconds
    (i =   4 of   9)        139 seconds
    (i =   5 of   9)        174 seconds
    (i =   6 of   9)        210 seconds
    (i =   7 of   9)        246 seconds
    (i =   8 of   9)        282 seconds
    (i =   9 of   9)        318 seconds

    Disp202 (T)         =    -0.006541720232 [Eh]

    Disp22 (T)          =    -0.013575609879 [Eh]

    Est. Disp220 (T)    =    -0.007541327429 [Eh]
    Est. Disp202 (T)    =    -0.007013652004 [Eh]

    Est. Disp22 (T)     =    -0.014554979433 [Eh]

    SAPT Results 
  --------------------------------------------------------------------------------------------------------
    Electrostatics               -217.47548478 [mEh]    -136.46792702 [kcal/mol]    -570.98180664 [kJ/mol]
      Elst10,r                   -222.80152637 [mEh]    -139.81006857 [kcal/mol]    -584.96532690 [kJ/mol]
      Elst12,r                      5.32604159 [mEh]       3.34214155 [kcal/mol]      13.98352026 [kJ/mol]

    Exchange                      634.07428365 [mEh]     397.88762007 [kcal/mol]    1664.76180238 [kJ/mol]
      Exch10                      621.77996470 [mEh]     390.17281845 [kcal/mol]    1632.48307240 [kJ/mol]
      Exch10(S^2)                 540.92545337 [mEh]     339.43584660 [kcal/mol]    1420.19958216 [kJ/mol]
      Exch11(S^2)                   0.12744355 [mEh]       0.07997204 [kcal/mol]       0.33460301 [kJ/mol]
      Exch12(S^2)                  12.16687540 [mEh]       7.63482958 [kcal/mol]      31.94412697 [kJ/mol]

    Induction                    -261.76540940 [mEh]    -164.26027431 [kcal/mol]    -687.26498770 [kJ/mol]
      Ind20,r                    -397.66633374 [mEh]    -249.53939182 [kcal/mol]   -1044.07281539 [kJ/mol]
      Ind22                       -37.94993931 [mEh]     -23.81394645 [kcal/mol]     -99.63755194 [kJ/mol]
      Exch-Ind20,r                211.70542715 [mEh]     132.84716119 [kcal/mol]     555.83252242 [kJ/mol]
      Exch-Ind22                   20.20339021 [mEh]      12.67781876 [kcal/mol]      53.04399368 [kJ/mol]
      delta HF,r (2)              -58.05795371 [mEh]     -36.43191598 [kcal/mol]    -152.43113647 [kJ/mol]

    Dispersion                    -75.97037339 [mEh]     -47.67212903 [kcal/mol]    -199.46018785 [kJ/mol]
      Disp20                      -95.71883815 [mEh]     -60.06447776 [kcal/mol]    -251.30977494 [kJ/mol]
      Disp21                       17.73256771 [mEh]      11.12735423 [kcal/mol]      46.55685012 [kJ/mol]
      Disp22 (SDQ)                 -2.87618011 [mEh]      -1.80483027 [kcal/mol]      -7.55140985 [kJ/mol]
      Disp22 (T)                  -13.57560988 [mEh]      -8.51882381 [kcal/mol]     -35.64275883 [kJ/mol]
      Est. Disp22 (T)             -14.55497943 [mEh]      -9.13338748 [kcal/mol]     -38.21409324 [kJ/mol]
      Exch-Disp20                  19.44705659 [mEh]      12.20321225 [kcal/mol]      51.05824005 [kJ/mol]

  Total HF                        154.95957803 [mEh]      97.23860327 [kcal/mol]     406.84631606 [kJ/mol]
  Total SAPT0                      78.68779647 [mEh]      49.37733776 [kcal/mol]     206.59478118 [kJ/mol]
  Total SAPT2                      78.56160791 [mEh]      49.29815324 [kcal/mol]     206.26347316 [kJ/mol]
  Total SAPT2+                     78.86301608 [mEh]      49.48728972 [kcal/mol]     207.05482020 [kJ/mol]

  Special recipe for scaled SAPT0 (see Manual):
    Electrostatics sSAPT0        -222.80152637 [mEh]    -139.81006857 [kcal/mol]    -584.96532690 [kJ/mol]
    Exchange sSAPT0               621.77996470 [mEh]     390.17281845 [kcal/mol]    1632.48307240 [kJ/mol]
    Induction sSAPT0             -134.18806152 [mEh]     -84.20427987 [kcal/mol]    -352.31070698 [kJ/mol]
    Dispersion sSAPT0             -66.18283018 [mEh]     -41.53035294 [kcal/mol]    -173.76299671 [kJ/mol]
  Total sSAPT0                    198.60754662 [mEh]     124.62811707 [kcal/mol]     521.44404181 [kJ/mol]
  --------------------------------------------------------------------------------------------------------

*** tstop() called on node51.bme.utexas.edu at Tue Sep 10 11:56:42 2019
Module time:
	user time   =    3317.61 seconds =      55.29 minutes
	system time =      99.09 seconds =       1.65 minutes
	total time  =        903 seconds =      15.05 minutes
Total time:
	user time   =    3487.54 seconds =      58.13 minutes
	system time =     103.02 seconds =       1.72 minutes
	total time  =        956 seconds =      15.93 minutes

    Psi4 stopped on: Tuesday, 10 September 2019 11:56AM
    Psi4 wall time for execution: 0:15:55.55

*** Psi4 exiting successfully. Buy a developer a beer!
