
    -----------------------------------------------------------------------
          Psi4: An Open-Source Ab Initio Electronic Structure Package
                               Psi4 1.3.2 release

                         Git: Rev {HEAD} ecbda83 


    R. M. Parrish, L. A. Burns, D. G. A. Smith, A. C. Simmonett,
    A. E. DePrince III, E. G. Hohenstein, U. Bozkaya, A. Yu. Sokolov,
    R. Di Remigio, R. M. Richard, J. F. Gonthier, A. M. James,
    H. R. McAlexander, A. Kumar, M. Saitow, X. Wang, B. P. Pritchard,
    P. Verma, H. F. Schaefer III, K. Patkowski, R. A. King, E. F. Valeev,
    F. A. Evangelista, J. M. Turney, T. D. Crawford, and C. D. Sherrill,
    J. Chem. Theory Comput. 13(7) pp 3185--3197 (2017).
    (doi: 10.1021/acs.jctc.7b00174)


                         Additional Contributions by
    P. Kraus, H. Kruse, M. H. Lechner, M. C. Schieber, R. A. Shaw,
    A. Alenaizan, R. Galvelis, Z. L. Glick, S. Lehtola, and J. P. Misiewicz

    -----------------------------------------------------------------------


    Psi4 started on: Tuesday, 10 September 2019 12:06PM

    Process ID: 48321
    Host:       node51.bme.utexas.edu
    PSIDATADIR: /home/xy3866/psi4conda/share/psi4
    Memory:     500.0 MiB
    Threads:    4
    
  ==> Input File <==

--------------------------------------------------------------------------
#psi4
#
memory 32 gb

molecule  {
0 1
  C        2.0083120    -0.3372920     0.0000040
  H        3.1030340    -0.4288200    -0.0000030
  O        1.2864570    -1.3299810     0.0000000
  N        1.5810970     0.9343630     0.0000010
  H        0.5827550     1.1459700     0.0000010
  H        2.5389234     1.6391172    -0.0000030
--
0 1
  C       -1.7215566     0.2977302     0.0000010
  H       -2.8162786     0.3892582    -0.0000010
  O       -0.9997016     1.2904192     0.0000000
  N       -1.2943416    -0.9739248     0.0000000
  H       -0.2959996    -1.1855318     0.0000000
  H       -1.9654126    -1.7182408    -0.0000010
units angstrom
no_reorient  #important for SAPT in psi4, default
symmetry c1  #important for SAPT in psi4, default
}

set {
basis aug-cc-pVTZ
scf_type DF
freeze_core True
}
energy('sapt2+')
--------------------------------------------------------------------------

  Memory set to  29.802 GiB by Python driver.

  //>>>>>>>>>>>>>>>>>>>>>>>>>>>>>>>>>>>//
  //              Dimer HF             //
  //<<<<<<<<<<<<<<<<<<<<<<<<<<<<<<<<<<<//


*** tstart() called on node51.bme.utexas.edu
*** at Tue Sep 10 12:06:50 2019

   => Loading Basis Set <=

    Name: AUG-CC-PVTZ
    Role: ORBITAL
    Keyword: BASIS
    atoms 1, 7             entry C          line   235 file /home/xy3866/psi4conda/share/psi4/basis/aug-cc-pvtz.gbs 
    atoms 2, 5-6, 8, 11-12 entry H          line    36 file /home/xy3866/psi4conda/share/psi4/basis/aug-cc-pvtz.gbs 
    atoms 3, 9             entry O          line   327 file /home/xy3866/psi4conda/share/psi4/basis/aug-cc-pvtz.gbs 
    atoms 4, 10            entry N          line   281 file /home/xy3866/psi4conda/share/psi4/basis/aug-cc-pvtz.gbs 


         ---------------------------------------------------------
                                   SCF
               by Justin Turney, Rob Parrish, Andy Simmonett
                          and Daniel G. A. Smith
                              RHF Reference
                        4 Threads,  30517 MiB Core
         ---------------------------------------------------------

  ==> Geometry <==

    Molecular point group: c1
    Full point group: C1

    Geometry (in Angstrom), charge = 0, multiplicity = 1:

       Center              X                  Y                   Z               Mass       
    ------------   -----------------  -----------------  -----------------  -----------------
         C            1.861724727872    -0.317068295956     0.000003256485    12.000000000000
         H            2.956446727872    -0.408596295956    -0.000003743515     1.007825032230
         O            1.139869727872    -1.309757295956    -0.000000743515    15.994914619570
         N            1.434509727872     0.954586704044     0.000000256485    14.003074004430
         H            0.436167727872     1.166193704044     0.000000256485     1.007825032230
         H            2.392336127872     1.659340904044    -0.000003743515     1.007825032230
         C           -1.868143872128     0.317953904044     0.000000256485    12.000000000000
         H           -2.962865872128     0.409481904044    -0.000001743515     1.007825032230
         O           -1.146288872128     1.310642904044    -0.000000743515    15.994914619570
         N           -1.440928872128    -0.953701095956    -0.000000743515    14.003074004430
         H           -0.442586872128    -1.165308095956    -0.000000743515     1.007825032230
         H           -2.111999872128    -1.698017095956    -0.000001743515     1.007825032230

  Running in c1 symmetry.

  Rotational constants: A =      0.18923  B =      0.07878  C =      0.05563 [cm^-1]
  Rotational constants: A =   5672.88786  B =   2361.90424  C =   1667.59983 [MHz]
  Nuclear repulsion =  236.941669524986111

  Charge       = 0
  Multiplicity = 1
  Electrons    = 48
  Nalpha       = 24
  Nbeta        = 24

  ==> Algorithm <==

  SCF Algorithm Type is DF.
  DIIS enabled.
  MOM disabled.
  Fractional occupation disabled.
  Guess Type is SAD.
  Energy threshold   = 1.00e-08
  Density threshold  = 1.00e-08
  Integral threshold = 0.00e+00

  ==> Primary Basis <==

  Basis Set: AUG-CC-PVTZ
    Blend: AUG-CC-PVTZ
    Number of shells: 138
    Number of basis function: 414
    Number of Cartesian functions: 480
    Spherical Harmonics?: true
    Max angular momentum: 3

   => Loading Basis Set <=

    Name: (AUG-CC-PVTZ AUX)
    Role: JKFIT
    Keyword: DF_BASIS_SCF
    atoms 1, 7             entry C          line   162 file /home/xy3866/psi4conda/share/psi4/basis/aug-cc-pvtz-jkfit.gbs 
    atoms 2, 5-6, 8, 11-12 entry H          line    70 file /home/xy3866/psi4conda/share/psi4/basis/aug-cc-pvtz-jkfit.gbs 
    atoms 3, 9             entry O          line   286 file /home/xy3866/psi4conda/share/psi4/basis/aug-cc-pvtz-jkfit.gbs 
    atoms 4, 10            entry N          line   224 file /home/xy3866/psi4conda/share/psi4/basis/aug-cc-pvtz-jkfit.gbs 

  ==> Pre-Iterations <==

   -------------------------------------------------------
    Irrep   Nso     Nmo     Nalpha   Nbeta   Ndocc  Nsocc
   -------------------------------------------------------
     A        414     414       0       0       0       0
   -------------------------------------------------------
    Total     414     414      24      24      24       0
   -------------------------------------------------------

  ==> Integral Setup <==

  ==> DiskDFJK: Density-Fitted J/K Matrices <==

    J tasked:                  Yes
    K tasked:                  Yes
    wK tasked:                  No
    OpenMP threads:              4
    Integrals threads:           4
    Memory [MiB]:            22888
    Algorithm:                Core
    Integral Cache:           SAVE
    Schwarz Cutoff:          1E-12
    Fitting Condition:       1E-10

   => Auxiliary Basis Set <=

  Basis Set: (AUG-CC-PVTZ AUX)
    Blend: AUG-CC-PVTZ-JKFIT
    Number of shells: 264
    Number of basis function: 900
    Number of Cartesian functions: 1116
    Spherical Harmonics?: true
    Max angular momentum: 4

  Minimum eigenvalue in the overlap matrix is 2.9521198205E-05.
  Using Symmetric Orthogonalization.

  SCF Guess: Superposition of Atomic Densities via on-the-fly atomic UHF.

  ==> Iterations <==

                           Total Energy        Delta E     RMS |[F,P]|

   @DF-RHF iter SAD:  -336.73137591343476   -3.36731e+02   0.00000e+00 
   @DF-RHF iter   1:  -337.76870209755526   -1.03733e+00   1.72133e-03 DIIS
   @DF-RHF iter   2:  -337.91840489417893   -1.49703e-01   1.06260e-03 DIIS
   @DF-RHF iter   3:  -337.98344667086104   -6.50418e-02   1.53406e-04 DIIS
   @DF-RHF iter   4:  -337.98579650431179   -2.34983e-03   6.82639e-05 DIIS
   @DF-RHF iter   5:  -337.98623671702705   -4.40213e-04   1.57765e-05 DIIS
   @DF-RHF iter   6:  -337.98629206892446   -5.53519e-05   7.65358e-06 DIIS
   @DF-RHF iter   7:  -337.98630458855274   -1.25196e-05   2.76835e-06 DIIS
   @DF-RHF iter   8:  -337.98630691285018   -2.32430e-06   9.98035e-07 DIIS
   @DF-RHF iter   9:  -337.98630715602332   -2.43173e-07   3.52665e-07 DIIS
   @DF-RHF iter  10:  -337.98630718058092   -2.45576e-08   1.48022e-07 DIIS
   @DF-RHF iter  11:  -337.98630718462181   -4.04088e-09   5.22310e-08 DIIS
   @DF-RHF iter  12:  -337.98630718505183   -4.30020e-10   1.83219e-08 DIIS
   @DF-RHF iter  13:  -337.98630718509537   -4.35421e-11   4.25790e-09 DIIS
  Energy and wave function converged.


  ==> Post-Iterations <==

    Orbital Energies [Eh]
    ---------------------

    Doubly Occupied:                                                      

       1A    -20.533145     2A    -20.529331     3A    -15.586696  
       4A    -15.570454     5A    -11.358268     6A    -11.354019  
       7A     -1.394554     8A     -1.385295     9A     -1.212805  
      10A     -1.192411    11A     -0.869105    12A     -0.820202  
      13A     -0.745730    14A     -0.728609    15A     -0.699608  
      16A     -0.630344    17A     -0.619475    18A     -0.579163  
      19A     -0.578957    20A     -0.565672    21A     -0.459950  
      22A     -0.424387    23A     -0.422741    24A     -0.405066  

    Virtual:                                                              

      25A      0.026496    26A      0.030463    27A      0.043580  
      28A      0.050854    29A      0.060357    30A      0.075183  
      31A      0.084447    32A      0.088976    33A      0.100626  
      34A      0.111608    35A      0.125461    36A      0.132029  
      37A      0.139481    38A      0.139557    39A      0.140828  
      40A      0.149602    41A      0.155337    42A      0.161518  
      43A      0.182412    44A      0.183159    45A      0.189204  
      46A      0.200568    47A      0.223784    48A      0.225193  
      49A      0.228814    50A      0.256208    51A      0.259512  
      52A      0.262478    53A      0.269562    54A      0.272993  
      55A      0.280997    56A      0.290789    57A      0.298102  
      58A      0.299597    59A      0.309390    60A      0.323621  
      61A      0.327097    62A      0.336423    63A      0.338521  
      64A      0.342815    65A      0.359546    66A      0.363948  
      67A      0.383947    68A      0.388352    69A      0.399944  
      70A      0.405215    71A      0.410439    72A      0.417788  
      73A      0.419445    74A      0.427388    75A      0.439398  
      76A      0.454561    77A      0.460691    78A      0.474048  
      79A      0.477236    80A      0.494800    81A      0.514298  
      82A      0.529990    83A      0.532035    84A      0.541900  
      85A      0.544975    86A      0.545633    87A      0.563472  
      88A      0.579071    89A      0.582043    90A      0.593693  
      91A      0.596213    92A      0.617909    93A      0.627175  
      94A      0.637598    95A      0.647129    96A      0.652718  
      97A      0.664093    98A      0.671505    99A      0.680885  
     100A      0.710898   101A      0.717320   102A      0.730428  
     103A      0.743511   104A      0.745759   105A      0.762030  
     106A      0.768160   107A      0.800276   108A      0.813095  
     109A      0.821486   110A      0.827719   111A      0.834511  
     112A      0.837177   113A      0.864996   114A      0.868418  
     115A      0.876469   116A      0.886623   117A      0.905894  
     118A      0.910219   119A      0.919407   120A      0.926080  
     121A      0.926744   122A      0.931185   123A      0.945614  
     124A      0.952980   125A      0.958481   126A      0.969726  
     127A      0.982553   128A      0.997272   129A      1.001661  
     130A      1.015849   131A      1.022634   132A      1.023100  
     133A      1.032030   134A      1.036413   135A      1.050441  
     136A      1.072922   137A      1.088475   138A      1.092411  
     139A      1.110322   140A      1.126021   141A      1.129018  
     142A      1.131806   143A      1.139550   144A      1.148347  
     145A      1.157936   146A      1.160271   147A      1.180548  
     148A      1.185463   149A      1.210968   150A      1.221796  
     151A      1.233953   152A      1.263266   153A      1.270953  
     154A      1.274671   155A      1.281893   156A      1.291485  
     157A      1.301541   158A      1.308238   159A      1.329521  
     160A      1.363024   161A      1.380185   162A      1.383870  
     163A      1.389577   164A      1.393158   165A      1.412513  
     166A      1.441701   167A      1.447882   168A      1.454156  
     169A      1.458775   170A      1.461685   171A      1.481603  
     172A      1.500954   173A      1.507107   174A      1.510506  
     175A      1.524565   176A      1.530373   177A      1.542365  
     178A      1.562961   179A      1.587117   180A      1.612990  
     181A      1.626749   182A      1.632988   183A      1.641744  
     184A      1.687505   185A      1.708365   186A      1.725670  
     187A      1.737789   188A      1.739220   189A      1.744543  
     190A      1.746543   191A      1.765162   192A      1.783326  
     193A      1.824425   194A      1.829272   195A      1.852348  
     196A      1.864254   197A      1.875766   198A      1.901917  
     199A      1.949355   200A      1.962569   201A      1.997221  
     202A      2.019596   203A      2.022135   204A      2.069615  
     205A      2.074031   206A      2.076470   207A      2.102327  
     208A      2.103915   209A      2.107952   210A      2.144707  
     211A      2.178513   212A      2.199003   213A      2.216990  
     214A      2.243083   215A      2.250624   216A      2.279605  
     217A      2.282462   218A      2.291834   219A      2.307482  
     220A      2.396102   221A      2.406394   222A      2.411253  
     223A      2.423985   224A      2.433079   225A      2.464852  
     226A      2.474286   227A      2.499254   228A      2.507113  
     229A      2.542295   230A      2.542830   231A      2.567194  
     232A      2.578275   233A      2.598245   234A      2.616687  
     235A      2.623875   236A      2.635899   237A      2.649801  
     238A      2.677400   239A      2.689886   240A      2.698370  
     241A      2.698818   242A      2.722720   243A      2.762378  
     244A      2.778692   245A      2.802194   246A      2.817429  
     247A      2.832503   248A      2.847142   249A      2.853081  
     250A      2.888083   251A      2.930798   252A      2.965764  
     253A      2.994455   254A      3.028340   255A      3.075326  
     256A      3.092516   257A      3.132118   258A      3.182629  
     259A      3.186614   260A      3.205296   261A      3.235226  
     262A      3.318410   263A      3.373411   264A      3.393810  
     265A      3.417942   266A      3.420151   267A      3.442924  
     268A      3.473003   269A      3.495779   270A      3.533724  
     271A      3.596428   272A      3.597226   273A      3.641891  
     274A      3.661897   275A      3.710481   276A      3.726755  
     277A      3.736255   278A      3.746729   279A      3.796071  
     280A      3.819117   281A      3.864580   282A      3.877429  
     283A      3.933036   284A      3.946032   285A      3.998140  
     286A      4.075217   287A      4.097953   288A      4.105449  
     289A      4.118436   290A      4.158020   291A      4.162348  
     292A      4.163958   293A      4.170343   294A      4.199965  
     295A      4.225799   296A      4.233326   297A      4.248686  
     298A      4.266709   299A      4.276295   300A      4.280127  
     301A      4.313505   302A      4.326605   303A      4.370464  
     304A      4.383789   305A      4.399813   306A      4.407469  
     307A      4.420263   308A      4.441049   309A      4.452654  
     310A      4.460784   311A      4.486042   312A      4.520778  
     313A      4.533231   314A      4.553237   315A      4.589646  
     316A      4.657525   317A      4.658180   318A      4.675259  
     319A      4.721201   320A      4.751937   321A      4.801577  
     322A      4.814977   323A      4.836616   324A      4.842051  
     325A      4.901482   326A      4.910605   327A      4.935482  
     328A      4.942900   329A      4.969746   330A      5.000666  
     331A      5.008043   332A      5.030176   333A      5.043994  
     334A      5.065134   335A      5.130165   336A      5.152385  
     337A      5.196913   338A      5.199591   339A      5.209616  
     340A      5.246396   341A      5.258767   342A      5.260897  
     343A      5.322719   344A      5.366706   345A      5.424511  
     346A      5.445769   347A      5.479287   348A      5.519899  
     349A      5.590705   350A      5.595776   351A      5.604146  
     352A      5.616456   353A      5.637245   354A      5.660523  
     355A      5.689019   356A      5.692232   357A      5.733771  
     358A      5.807095   359A      5.836973   360A      5.851356  
     361A      5.863062   362A      5.910548   363A      5.921332  
     364A      6.047450   365A      6.145194   366A      6.150716  
     367A      6.172382   368A      6.243105   369A      6.278807  
     370A      6.378515   371A      6.391995   372A      6.441378  
     373A      6.489192   374A      6.512540   375A      6.690527  
     376A      6.722818   377A      6.846295   378A      6.872691  
     379A      6.875168   380A      6.908771   381A      6.927526  
     382A      6.991339   383A      7.041725   384A      7.092923  
     385A      7.115204   386A      7.123566   387A      7.136160  
     388A      7.166379   389A      7.167724   390A      7.194556  
     391A      7.304787   392A      7.332926   393A      7.358892  
     394A      7.409127   395A      7.430761   396A      7.509266  
     397A      7.599830   398A      7.656970   399A      7.671030  
     400A      7.691791   401A      7.776175   402A      7.890457  
     403A      7.935681   404A      7.972828   405A      8.050764  
     406A      8.169133   407A      8.587149   408A      8.620450  
     409A     15.967771   410A     16.082544   411A     17.317072  
     412A     17.957134   413A     18.577375   414A     19.048649  

    Final Occupation by Irrep:
              A 
    DOCC [    24 ]

  @DF-RHF Final Energy:  -337.98630718509537

   => Energetics <=

    Nuclear Repulsion Energy =            236.9416695249861107
    One-Electron Energy =                -932.5239836371263209
    Two-Electron Energy =                 357.5960069270448685
    Total Energy =                       -337.9863071850953702

Computation Completed


Properties will be evaluated at   0.000000,   0.000000,   0.000000 [a0]

Properties computed using the SCF density matrix

  Nuclear Dipole Moment: [e a0]
     X:     0.2508      Y:    -0.0346      Z:    -0.0000

  Electronic Dipole Moment: [e a0]
     X:    -0.1863      Y:     0.0123      Z:     0.0000

  Dipole Moment: [e a0]
     X:     0.0644      Y:    -0.0223      Z:    -0.0000     Total:     0.0682

  Dipole Moment: [D]
     X:     0.1637      Y:    -0.0566      Z:    -0.0000     Total:     0.1732


*** tstop() called on node51.bme.utexas.edu at Tue Sep 10 12:07:11 2019
Module time:
	user time   =      76.37 seconds =       1.27 minutes
	system time =       1.82 seconds =       0.03 minutes
	total time  =         21 seconds =       0.35 minutes
Total time:
	user time   =      76.37 seconds =       1.27 minutes
	system time =       1.82 seconds =       0.03 minutes
	total time  =         21 seconds =       0.35 minutes

  //>>>>>>>>>>>>>>>>>>>>>>>>>>>>>>>>>>>//
  //            Monomer A HF           //
  //<<<<<<<<<<<<<<<<<<<<<<<<<<<<<<<<<<<//


*** tstart() called on node51.bme.utexas.edu
*** at Tue Sep 10 12:07:11 2019

   => Loading Basis Set <=

    Name: AUG-CC-PVTZ
    Role: ORBITAL
    Keyword: BASIS
    atoms 1, 7             entry C          line   235 file /home/xy3866/psi4conda/share/psi4/basis/aug-cc-pvtz.gbs 
    atoms 2, 5-6, 8, 11-12 entry H          line    36 file /home/xy3866/psi4conda/share/psi4/basis/aug-cc-pvtz.gbs 
    atoms 3, 9             entry O          line   327 file /home/xy3866/psi4conda/share/psi4/basis/aug-cc-pvtz.gbs 
    atoms 4, 10            entry N          line   281 file /home/xy3866/psi4conda/share/psi4/basis/aug-cc-pvtz.gbs 


         ---------------------------------------------------------
                                   SCF
               by Justin Turney, Rob Parrish, Andy Simmonett
                          and Daniel G. A. Smith
                              RHF Reference
                        4 Threads,  30517 MiB Core
         ---------------------------------------------------------

  ==> Geometry <==

    Molecular point group: c1
    Full point group: C1

    Geometry (in Angstrom), charge = 0, multiplicity = 1:

       Center              X                  Y                   Z               Mass       
    ------------   -----------------  -----------------  -----------------  -----------------
         C            1.861724727872    -0.317068295956     0.000003256485    12.000000000000
         H            2.956446727872    -0.408596295956    -0.000003743515     1.007825032230
         O            1.139869727872    -1.309757295956    -0.000000743515    15.994914619570
         N            1.434509727872     0.954586704044     0.000000256485    14.003074004430
         H            0.436167727872     1.166193704044     0.000000256485     1.007825032230
         H            2.392336127872     1.659340904044    -0.000003743515     1.007825032230
      Gh(C)          -1.868143872128     0.317953904044     0.000000256485    12.000000000000
      Gh(H)          -2.962865872128     0.409481904044    -0.000001743515     1.007825032230
      Gh(O)          -1.146288872128     1.310642904044    -0.000000743515    15.994914619570
      Gh(N)          -1.440928872128    -0.953701095956    -0.000000743515    14.003074004430
      Gh(H)          -0.442586872128    -1.165308095956    -0.000000743515     1.007825032230
      Gh(H)          -2.111999872128    -1.698017095956    -0.000001743515     1.007825032230

  Running in c1 symmetry.

  Rotational constants: A =      0.18923  B =      0.07878  C =      0.05563 [cm^-1]
  Rotational constants: A =   5672.88786  B =   2361.90424  C =   1667.59983 [MHz]
  Nuclear repulsion =   70.516209541351714

  Charge       = 0
  Multiplicity = 1
  Electrons    = 24
  Nalpha       = 12
  Nbeta        = 12

  ==> Algorithm <==

  SCF Algorithm Type is DF.
  DIIS enabled.
  MOM disabled.
  Fractional occupation disabled.
  Guess Type is SAD.
  Energy threshold   = 1.00e-08
  Density threshold  = 1.00e-08
  Integral threshold = 0.00e+00

  ==> Primary Basis <==

  Basis Set: AUG-CC-PVTZ
    Blend: AUG-CC-PVTZ
    Number of shells: 138
    Number of basis function: 414
    Number of Cartesian functions: 480
    Spherical Harmonics?: true
    Max angular momentum: 3

   => Loading Basis Set <=

    Name: (AUG-CC-PVTZ AUX)
    Role: JKFIT
    Keyword: DF_BASIS_SCF
    atoms 1, 7             entry C          line   162 file /home/xy3866/psi4conda/share/psi4/basis/aug-cc-pvtz-jkfit.gbs 
    atoms 2, 5-6, 8, 11-12 entry H          line    70 file /home/xy3866/psi4conda/share/psi4/basis/aug-cc-pvtz-jkfit.gbs 
    atoms 3, 9             entry O          line   286 file /home/xy3866/psi4conda/share/psi4/basis/aug-cc-pvtz-jkfit.gbs 
    atoms 4, 10            entry N          line   224 file /home/xy3866/psi4conda/share/psi4/basis/aug-cc-pvtz-jkfit.gbs 

  ==> Pre-Iterations <==

   -------------------------------------------------------
    Irrep   Nso     Nmo     Nalpha   Nbeta   Ndocc  Nsocc
   -------------------------------------------------------
     A        414     414       0       0       0       0
   -------------------------------------------------------
    Total     414     414      12      12      12       0
   -------------------------------------------------------

  ==> Integral Setup <==

  ==> DiskDFJK: Density-Fitted J/K Matrices <==

    J tasked:                  Yes
    K tasked:                  Yes
    wK tasked:                  No
    OpenMP threads:              4
    Integrals threads:           4
    Memory [MiB]:            22888
    Algorithm:                Core
    Integral Cache:           LOAD
    Schwarz Cutoff:          1E-12
    Fitting Condition:       1E-10

   => Auxiliary Basis Set <=

  Basis Set: (AUG-CC-PVTZ AUX)
    Blend: AUG-CC-PVTZ-JKFIT
    Number of shells: 264
    Number of basis function: 900
    Number of Cartesian functions: 1116
    Spherical Harmonics?: true
    Max angular momentum: 4

  Minimum eigenvalue in the overlap matrix is 2.9521198205E-05.
  Using Symmetric Orthogonalization.

  SCF Guess: Superposition of Atomic Densities via on-the-fly atomic UHF.

  ==> Iterations <==

                           Total Energy        Delta E     RMS |[F,P]|

   @DF-RHF iter SAD:  -168.11524337949680   -1.68115e+02   0.00000e+00 
   @DF-RHF iter   1:  -168.84084468660367   -7.25601e-01   1.29193e-03 DIIS
   @DF-RHF iter   2:  -168.91991063609026   -7.90659e-02   9.21982e-04 DIIS
   @DF-RHF iter   3:  -168.96877543877071   -4.88648e-02   1.26523e-04 DIIS
   @DF-RHF iter   4:  -168.97042125734848   -1.64582e-03   5.88700e-05 DIIS
   @DF-RHF iter   5:  -168.97080999156708   -3.88734e-04   1.38340e-05 DIIS
   @DF-RHF iter   6:  -168.97086155155708   -5.15600e-05   6.61405e-06 DIIS
   @DF-RHF iter   7:  -168.97087193100629   -1.03794e-05   2.53016e-06 DIIS
   @DF-RHF iter   8:  -168.97087349800643   -1.56700e-06   7.81762e-07 DIIS
   @DF-RHF iter   9:  -168.97087365355605   -1.55550e-07   2.15000e-07 DIIS
   @DF-RHF iter  10:  -168.97087366666375   -1.31077e-08   5.05466e-08 DIIS
   @DF-RHF iter  11:  -168.97087366725668   -5.92934e-10   9.54328e-09 DIIS
  Energy and wave function converged.


  ==> Post-Iterations <==

    Orbital Energies [Eh]
    ---------------------

    Doubly Occupied:                                                      

       1A    -20.524808     2A    -15.616502     3A    -11.353207  
       4A     -1.374560     5A     -1.210003     6A     -0.846633  
       7A     -0.710069     8A     -0.678558     9A     -0.588374  
      10A     -0.569961    11A     -0.432277    12A     -0.419046  

    Virtual:                                                              

      13A      0.017676    14A      0.028798    15A      0.040283  
      16A      0.055519    17A      0.056683    18A      0.069509  
      19A      0.085293    20A      0.086718    21A      0.089879  
      22A      0.097790    23A      0.110779    24A      0.119513  
      25A      0.130733    26A      0.133918    27A      0.140826  
      28A      0.149732    29A      0.154591    30A      0.161878  
      31A      0.166499    32A      0.180888    33A      0.197937  
      34A      0.198546    35A      0.204784    36A      0.220084  
      37A      0.224960    38A      0.250709    39A      0.251265  
      40A      0.257331    41A      0.259089    42A      0.272006  
      43A      0.274458    44A      0.289736    45A      0.302419  
      46A      0.303138    47A      0.308055    48A      0.320215  
      49A      0.329387    50A      0.334290    51A      0.339869  
      52A      0.355357    53A      0.359839    54A      0.364979  
      55A      0.374203    56A      0.382734    57A      0.396551  
      58A      0.399115    59A      0.403246    60A      0.406782  
      61A      0.413567    62A      0.420520    63A      0.431166  
      64A      0.451161    65A      0.451816    66A      0.465336  
      67A      0.469392    68A      0.495363    69A      0.500236  
      70A      0.505589    71A      0.530894    72A      0.534624  
      73A      0.550930    74A      0.554092    75A      0.569044  
      76A      0.576365    77A      0.577461    78A      0.592804  
      79A      0.630697    80A      0.632409    81A      0.641894  
      82A      0.644143    83A      0.649545    84A      0.673069  
      85A      0.692761    86A      0.705885    87A      0.706063  
      88A      0.729610    89A      0.737640    90A      0.742386  
      91A      0.750614    92A      0.766360    93A      0.767083  
      94A      0.784363    95A      0.796648    96A      0.823135  
      97A      0.826675    98A      0.850023    99A      0.858871  
     100A      0.864419   101A      0.867474   102A      0.885713  
     103A      0.889436   104A      0.897184   105A      0.908758  
     106A      0.909145   107A      0.931284   108A      0.932627  
     109A      0.942906   110A      0.944469   111A      0.953309  
     112A      0.962549   113A      0.973352   114A      0.983258  
     115A      0.996127   116A      1.008966   117A      1.018612  
     118A      1.018805   119A      1.024598   120A      1.041525  
     121A      1.066100   122A      1.069144   123A      1.077338  
     124A      1.085413   125A      1.092079   126A      1.103372  
     127A      1.107641   128A      1.126779   129A      1.134255  
     130A      1.136418   131A      1.146459   132A      1.155767  
     133A      1.179591   134A      1.181093   135A      1.210964  
     136A      1.213470   137A      1.232621   138A      1.257884  
     139A      1.271950   140A      1.273871   141A      1.288551  
     142A      1.290291   143A      1.306963   144A      1.321978  
     145A      1.346798   146A      1.347653   147A      1.354930  
     148A      1.375567   149A      1.381969   150A      1.412751  
     151A      1.426259   152A      1.438350   153A      1.458007  
     154A      1.461272   155A      1.476880   156A      1.495293  
     157A      1.496553   158A      1.510909   159A      1.517756  
     160A      1.529655   161A      1.560118   162A      1.565654  
     163A      1.589974   164A      1.611538   165A      1.632348  
     166A      1.660554   167A      1.661145   168A      1.676123  
     169A      1.683081   170A      1.691613   171A      1.707992  
     172A      1.709350   173A      1.737485   174A      1.748555  
     175A      1.750098   176A      1.758415   177A      1.763582  
     178A      1.780614   179A      1.798101   180A      1.851852  
     181A      1.863587   182A      1.877857   183A      1.885728  
     184A      1.890403   185A      1.905968   186A      1.923283  
     187A      1.947488   188A      1.963657   189A      1.973704  
     190A      2.015779   191A      2.044350   192A      2.082854  
     193A      2.085347   194A      2.090007   195A      2.122321  
     196A      2.127874   197A      2.135688   198A      2.145698  
     199A      2.178201   200A      2.203692   201A      2.259890  
     202A      2.276664   203A      2.289051   204A      2.326575  
     205A      2.350343   206A      2.394560   207A      2.407387  
     208A      2.409820   209A      2.432585   210A      2.434001  
     211A      2.467758   212A      2.490184   213A      2.502214  
     214A      2.509221   215A      2.537976   216A      2.548636  
     217A      2.576509   218A      2.617975   219A      2.619359  
     220A      2.663735   221A      2.675295   222A      2.684535  
     223A      2.703757   224A      2.712304   225A      2.734636  
     226A      2.746392   227A      2.767374   228A      2.786057  
     229A      2.793323   230A      2.819103   231A      2.836016  
     232A      2.850849   233A      2.854865   234A      2.902997  
     235A      2.913002   236A      2.942711   237A      2.970907  
     238A      2.997210   239A      3.010475   240A      3.024596  
     241A      3.059251   242A      3.065676   243A      3.105770  
     244A      3.152513   245A      3.176645   246A      3.197037  
     247A      3.205130   248A      3.219845   249A      3.256686  
     250A      3.270699   251A      3.324013   252A      3.354525  
     253A      3.396370   254A      3.433501   255A      3.467311  
     256A      3.494366   257A      3.557721   258A      3.561252  
     259A      3.602200   260A      3.626790   261A      3.634926  
     262A      3.656916   263A      3.699477   264A      3.760405  
     265A      3.781514   266A      3.844512   267A      3.845485  
     268A      3.906982   269A      3.948187   270A      4.028508  
     271A      4.044417   272A      4.056925   273A      4.095458  
     274A      4.114794   275A      4.120242   276A      4.142693  
     277A      4.157432   278A      4.183211   279A      4.184359  
     280A      4.219817   281A      4.247180   282A      4.253735  
     283A      4.294370   284A      4.309584   285A      4.386091  
     286A      4.418791   287A      4.437265   288A      4.444917  
     289A      4.471404   290A      4.491991   291A      4.503444  
     292A      4.567906   293A      4.601924   294A      4.620433  
     295A      4.638078   296A      4.658123   297A      4.692691  
     298A      4.741513   299A      4.747393   300A      4.800176  
     301A      4.812669   302A      4.824442   303A      4.845227  
     304A      4.881726   305A      4.916106   306A      4.923410  
     307A      4.934384   308A      4.973745   309A      4.980755  
     310A      5.016980   311A      5.042095   312A      5.059967  
     313A      5.066931   314A      5.098100   315A      5.120220  
     316A      5.167948   317A      5.176542   318A      5.219964  
     319A      5.240256   320A      5.249069   321A      5.262116  
     322A      5.329057   323A      5.369437   324A      5.377052  
     325A      5.382587   326A      5.418983   327A      5.452253  
     328A      5.480701   329A      5.502413   330A      5.518881  
     331A      5.567619   332A      5.590113   333A      5.600116  
     334A      5.629483   335A      5.645800   336A      5.693662  
     337A      5.767632   338A      5.779827   339A      5.811609  
     340A      5.871084   341A      5.874607   342A      5.930074  
     343A      6.003956   344A      6.025577   345A      6.104894  
     346A      6.157414   347A      6.192638   348A      6.246449  
     349A      6.247933   350A      6.346604   351A      6.424478  
     352A      6.516989   353A      6.623171   354A      6.623283  
     355A      6.673591   356A      6.725415   357A      6.738605  
     358A      6.793116   359A      6.818988   360A      6.844951  
     361A      6.901238   362A      6.909457   363A      6.998852  
     364A      7.046339   365A      7.131755   366A      7.144700  
     367A      7.202182   368A      7.212629   369A      7.284471  
     370A      7.363079   371A      7.390609   372A      7.435951  
     373A      7.488621   374A      7.547097   375A      7.633977  
     376A      7.686006   377A      7.735542   378A      7.757971  
     379A      7.802605   380A      7.808430   381A      7.839927  
     382A      7.927346   383A      7.993399   384A      8.005803  
     385A      8.019427   386A      8.160258   387A      8.161123  
     388A      8.235587   389A      8.261707   390A      8.632652  
     391A      8.709677   392A      8.939342   393A      9.173404  
     394A      9.553469   395A      9.606485   396A      9.804470  
     397A      9.870467   398A     10.084122   399A     10.192006  
     400A     10.642480   401A     10.798244   402A     11.245185  
     403A     11.810238   404A     11.858473   405A     12.517428  
     406A     12.766091   407A     13.052317   408A     13.985377  
     409A     16.046901   410A     17.378665   411A     18.556297  
     412A     51.696978   413A     62.069936   414A     67.405841  

    Final Occupation by Irrep:
              A 
    DOCC [    12 ]

  @DF-RHF Final Energy:  -168.97087366725668

   => Energetics <=

    Nuclear Repulsion Energy =             70.5162095413517136
    One-Electron Energy =                -370.3261632596491495
    Two-Electron Energy =                 130.8390800510407530
    Total Energy =                       -168.9708736672566829

Computation Completed


Properties will be evaluated at   0.000000,   0.000000,   0.000000 [a0]

Properties computed using the SCF density matrix

  Nuclear Dipole Moment: [e a0]
     X:    68.2490      Y:    -6.2010      Z:     0.0000

  Electronic Dipole Moment: [e a0]
     X:   -67.5368      Y:     7.8301      Z:    -0.0000

  Dipole Moment: [e a0]
     X:     0.7122      Y:     1.6291      Z:    -0.0000     Total:     1.7779

  Dipole Moment: [D]
     X:     1.8102      Y:     4.1407      Z:    -0.0000     Total:     4.5191


*** tstop() called on node51.bme.utexas.edu at Tue Sep 10 12:07:22 2019
Module time:
	user time   =      40.00 seconds =       0.67 minutes
	system time =       1.02 seconds =       0.02 minutes
	total time  =         11 seconds =       0.18 minutes
Total time:
	user time   =     116.39 seconds =       1.94 minutes
	system time =       2.84 seconds =       0.05 minutes
	total time  =         32 seconds =       0.53 minutes

  //>>>>>>>>>>>>>>>>>>>>>>>>>>>>>>>>>>>//
  //            Monomer B HF           //
  //<<<<<<<<<<<<<<<<<<<<<<<<<<<<<<<<<<<//


*** tstart() called on node51.bme.utexas.edu
*** at Tue Sep 10 12:07:22 2019

   => Loading Basis Set <=

    Name: AUG-CC-PVTZ
    Role: ORBITAL
    Keyword: BASIS
    atoms 1, 7             entry C          line   235 file /home/xy3866/psi4conda/share/psi4/basis/aug-cc-pvtz.gbs 
    atoms 2, 5-6, 8, 11-12 entry H          line    36 file /home/xy3866/psi4conda/share/psi4/basis/aug-cc-pvtz.gbs 
    atoms 3, 9             entry O          line   327 file /home/xy3866/psi4conda/share/psi4/basis/aug-cc-pvtz.gbs 
    atoms 4, 10            entry N          line   281 file /home/xy3866/psi4conda/share/psi4/basis/aug-cc-pvtz.gbs 


         ---------------------------------------------------------
                                   SCF
               by Justin Turney, Rob Parrish, Andy Simmonett
                          and Daniel G. A. Smith
                              RHF Reference
                        4 Threads,  30517 MiB Core
         ---------------------------------------------------------

  ==> Geometry <==

    Molecular point group: c1
    Full point group: C1

    Geometry (in Angstrom), charge = 0, multiplicity = 1:

       Center              X                  Y                   Z               Mass       
    ------------   -----------------  -----------------  -----------------  -----------------
      Gh(C)           1.861724727872    -0.317068295956     0.000003256485    12.000000000000
      Gh(H)           2.956446727872    -0.408596295956    -0.000003743515     1.007825032230
      Gh(O)           1.139869727872    -1.309757295956    -0.000000743515    15.994914619570
      Gh(N)           1.434509727872     0.954586704044     0.000000256485    14.003074004430
      Gh(H)           0.436167727872     1.166193704044     0.000000256485     1.007825032230
      Gh(H)           2.392336127872     1.659340904044    -0.000003743515     1.007825032230
         C           -1.868143872128     0.317953904044     0.000000256485    12.000000000000
         H           -2.962865872128     0.409481904044    -0.000001743515     1.007825032230
         O           -1.146288872128     1.310642904044    -0.000000743515    15.994914619570
         N           -1.440928872128    -0.953701095956    -0.000000743515    14.003074004430
         H           -0.442586872128    -1.165308095956    -0.000000743515     1.007825032230
         H           -2.111999872128    -1.698017095956    -0.000001743515     1.007825032230

  Running in c1 symmetry.

  Rotational constants: A =      0.18923  B =      0.07878  C =      0.05563 [cm^-1]
  Rotational constants: A =   5672.88786  B =   2361.90424  C =   1667.59983 [MHz]
  Nuclear repulsion =   71.161114512123262

  Charge       = 0
  Multiplicity = 1
  Electrons    = 24
  Nalpha       = 12
  Nbeta        = 12

  ==> Algorithm <==

  SCF Algorithm Type is DF.
  DIIS enabled.
  MOM disabled.
  Fractional occupation disabled.
  Guess Type is SAD.
  Energy threshold   = 1.00e-08
  Density threshold  = 1.00e-08
  Integral threshold = 0.00e+00

  ==> Primary Basis <==

  Basis Set: AUG-CC-PVTZ
    Blend: AUG-CC-PVTZ
    Number of shells: 138
    Number of basis function: 414
    Number of Cartesian functions: 480
    Spherical Harmonics?: true
    Max angular momentum: 3

   => Loading Basis Set <=

    Name: (AUG-CC-PVTZ AUX)
    Role: JKFIT
    Keyword: DF_BASIS_SCF
    atoms 1, 7             entry C          line   162 file /home/xy3866/psi4conda/share/psi4/basis/aug-cc-pvtz-jkfit.gbs 
    atoms 2, 5-6, 8, 11-12 entry H          line    70 file /home/xy3866/psi4conda/share/psi4/basis/aug-cc-pvtz-jkfit.gbs 
    atoms 3, 9             entry O          line   286 file /home/xy3866/psi4conda/share/psi4/basis/aug-cc-pvtz-jkfit.gbs 
    atoms 4, 10            entry N          line   224 file /home/xy3866/psi4conda/share/psi4/basis/aug-cc-pvtz-jkfit.gbs 

  ==> Pre-Iterations <==

   -------------------------------------------------------
    Irrep   Nso     Nmo     Nalpha   Nbeta   Ndocc  Nsocc
   -------------------------------------------------------
     A        414     414       0       0       0       0
   -------------------------------------------------------
    Total     414     414      12      12      12       0
   -------------------------------------------------------

  ==> Integral Setup <==

  ==> DiskDFJK: Density-Fitted J/K Matrices <==

    J tasked:                  Yes
    K tasked:                  Yes
    wK tasked:                  No
    OpenMP threads:              4
    Integrals threads:           4
    Memory [MiB]:            22888
    Algorithm:                Core
    Integral Cache:           LOAD
    Schwarz Cutoff:          1E-12
    Fitting Condition:       1E-10

   => Auxiliary Basis Set <=

  Basis Set: (AUG-CC-PVTZ AUX)
    Blend: AUG-CC-PVTZ-JKFIT
    Number of shells: 264
    Number of basis function: 900
    Number of Cartesian functions: 1116
    Spherical Harmonics?: true
    Max angular momentum: 4

  Minimum eigenvalue in the overlap matrix is 2.9521198205E-05.
  Using Symmetric Orthogonalization.

  SCF Guess: Superposition of Atomic Densities via on-the-fly atomic UHF.

  ==> Iterations <==

                           Total Energy        Delta E     RMS |[F,P]|

   @DF-RHF iter SAD:  -168.20327183708997   -1.68203e+02   0.00000e+00 
   @DF-RHF iter   1:  -168.87972984672965   -6.76458e-01   1.29326e-03 DIIS
   @DF-RHF iter   2:  -168.95786858934659   -7.81387e-02   8.83291e-04 DIIS
   @DF-RHF iter   3:  -169.00158405562786   -4.37155e-02   1.26824e-04 DIIS
   @DF-RHF iter   4:  -169.00302408401345   -1.44003e-03   5.48122e-05 DIIS
   @DF-RHF iter   5:  -169.00332750368960   -3.03420e-04   1.09774e-05 DIIS
   @DF-RHF iter   6:  -169.00335752637136   -3.00227e-05   5.23393e-06 DIIS
   @DF-RHF iter   7:  -169.00336383874986   -6.31238e-06   2.10895e-06 DIIS
   @DF-RHF iter   8:  -169.00336494857856   -1.10983e-06   6.37212e-07 DIIS
   @DF-RHF iter   9:  -169.00336505258892   -1.04010e-07   1.75799e-07 DIIS
   @DF-RHF iter  10:  -169.00336506075433   -8.16542e-09   4.34946e-08 DIIS
   @DF-RHF iter  11:  -169.00336506116173   -4.07397e-10   7.78630e-09 DIIS
  Energy and wave function converged.


  ==> Post-Iterations <==

    Orbital Energies [Eh]
    ---------------------

    Doubly Occupied:                                                      

       1A    -20.526911     2A    -15.602075     3A    -11.356539  
       4A     -1.376912     5A     -1.227357     6A     -0.854895  
       7A     -0.756193     8A     -0.677326     9A     -0.603152  
      10A     -0.571929    11A     -0.435223    12A     -0.422117  

    Virtual:                                                              

      13A      0.018588    14A      0.029722    15A      0.040085  
      16A      0.055872    17A      0.056509    18A      0.069385  
      19A      0.085543    20A      0.087014    21A      0.090542  
      22A      0.098253    23A      0.111514    24A      0.124912  
      25A      0.129763    26A      0.133958    27A      0.141259  
      28A      0.149982    29A      0.153821    30A      0.161393  
      31A      0.173694    32A      0.180526    33A      0.197125  
      34A      0.203813    35A      0.207024    36A      0.219759  
      37A      0.224727    38A      0.250451    39A      0.252229  
      40A      0.259507    41A      0.260416    42A      0.272639  
      43A      0.281604    44A      0.289947    45A      0.302811  
      46A      0.306367    47A      0.309840    48A      0.320178  
      49A      0.332771    50A      0.337479    51A      0.343400  
      52A      0.352455    53A      0.364312    54A      0.366800  
      55A      0.372252    56A      0.391818    57A      0.392360  
      58A      0.399027    59A      0.403165    60A      0.412425  
      61A      0.413028    62A      0.424333    63A      0.431799  
      64A      0.455398    65A      0.456927    66A      0.457242  
      67A      0.477892    68A      0.497854    69A      0.501474  
      70A      0.504163    71A      0.534291    72A      0.539739  
      73A      0.542203    74A      0.547901    75A      0.566394  
      76A      0.568252    77A      0.575637    78A      0.589182  
      79A      0.620790    80A      0.636290    81A      0.638909  
      82A      0.658034    83A      0.659991    84A      0.672542  
      85A      0.694396    86A      0.701725    87A      0.707323  
      88A      0.726319    89A      0.732898    90A      0.745709  
      91A      0.751215    92A      0.758559    93A      0.762036  
      94A      0.788102    95A      0.807245    96A      0.826115  
      97A      0.834054    98A      0.851199    99A      0.861491  
     100A      0.861737   101A      0.871633   102A      0.890055  
     103A      0.890925   104A      0.901941   105A      0.904776  
     106A      0.915884   107A      0.927010   108A      0.936967  
     109A      0.941295   110A      0.954257   111A      0.957996  
     112A      0.968778   113A      0.983098   114A      0.991613  
     115A      1.000154   116A      1.007725   117A      1.016879  
     118A      1.020457   119A      1.036063   120A      1.058328  
     121A      1.072631   122A      1.084027   123A      1.087359  
     124A      1.087471   125A      1.095761   126A      1.096112  
     127A      1.104834   128A      1.123151   129A      1.133687  
     130A      1.143047   131A      1.148585   132A      1.163169  
     133A      1.171220   134A      1.177598   135A      1.192820  
     136A      1.197199   137A      1.224099   138A      1.242209  
     139A      1.269549   140A      1.270763   141A      1.287358  
     142A      1.289117   143A      1.303670   144A      1.306394  
     145A      1.331478   146A      1.339113   147A      1.352224  
     148A      1.386503   149A      1.390825   150A      1.417073  
     151A      1.428410   152A      1.441722   153A      1.443313  
     154A      1.464948   155A      1.491410   156A      1.504132  
     157A      1.508503   158A      1.513257   159A      1.525400  
     160A      1.525895   161A      1.544860   162A      1.573767  
     163A      1.618544   164A      1.620654   165A      1.631745  
     166A      1.649030   167A      1.651015   168A      1.656725  
     169A      1.662645   170A      1.693042   171A      1.699975  
     172A      1.707350   173A      1.709551   174A      1.740361  
     175A      1.751189   176A      1.762344   177A      1.764315  
     178A      1.795246   179A      1.799682   180A      1.853198  
     181A      1.870220   182A      1.878290   183A      1.897209  
     184A      1.897974   185A      1.910853   186A      1.936374  
     187A      1.950505   188A      1.970499   189A      2.013956  
     190A      2.047608   191A      2.066318   192A      2.076489  
     193A      2.081261   194A      2.108718   195A      2.120784  
     196A      2.130192   197A      2.130276   198A      2.176660  
     199A      2.198830   200A      2.200048   201A      2.219618  
     202A      2.273170   203A      2.275816   204A      2.327499  
     205A      2.343948   206A      2.347837   207A      2.395719  
     208A      2.396954   209A      2.433570   210A      2.445271  
     211A      2.470044   212A      2.492474   213A      2.507912  
     214A      2.537409   215A      2.544369   216A      2.560501  
     217A      2.572759   218A      2.615354   219A      2.616558  
     220A      2.628764   221A      2.665452   222A      2.681917  
     223A      2.687660   224A      2.713739   225A      2.729787  
     226A      2.743189   227A      2.757104   228A      2.790482  
     229A      2.800881   230A      2.817079   231A      2.819695  
     232A      2.853545   233A      2.856856   234A      2.887885  
     235A      2.916790   236A      2.929508   237A      2.953749  
     238A      2.957443   239A      2.991078   240A      2.995997  
     241A      3.042068   242A      3.054317   243A      3.096250  
     244A      3.126223   245A      3.177252   246A      3.186645  
     247A      3.201925   248A      3.214522   249A      3.237062  
     250A      3.279905   251A      3.332758   252A      3.365226  
     253A      3.411457   254A      3.440836   255A      3.450126  
     256A      3.483248   257A      3.552085   258A      3.567674  
     259A      3.610924   260A      3.614296   261A      3.639626  
     262A      3.670812   263A      3.723765   264A      3.767545  
     265A      3.798292   266A      3.868584   267A      3.915684  
     268A      3.951869   269A      3.968480   270A      4.050682  
     271A      4.068130   272A      4.091605   273A      4.118471  
     274A      4.126154   275A      4.148109   276A      4.161752  
     277A      4.181256   278A      4.190530   279A      4.223041  
     280A      4.251859   281A      4.266121   282A      4.268858  
     283A      4.349777   284A      4.387440   285A      4.389292  
     286A      4.410760   287A      4.435978   288A      4.450783  
     289A      4.472333   290A      4.497044   291A      4.527609  
     292A      4.547955   293A      4.569242   294A      4.626959  
     295A      4.663236   296A      4.697294   297A      4.721602  
     298A      4.742720   299A      4.755255   300A      4.803626  
     301A      4.806400   302A      4.806845   303A      4.852102  
     304A      4.873226   305A      4.891461   306A      4.929670  
     307A      4.937653   308A      4.964928   309A      4.984750  
     310A      5.018194   311A      5.041976   312A      5.044334  
     313A      5.069931   314A      5.100951   315A      5.107238  
     316A      5.139669   317A      5.158074   318A      5.232445  
     319A      5.235388   320A      5.235751   321A      5.289014  
     322A      5.298595   323A      5.360570   324A      5.388887  
     325A      5.402221   326A      5.407613   327A      5.437247  
     328A      5.449133   329A      5.479573   330A      5.517614  
     331A      5.574202   332A      5.582110   333A      5.634309  
     334A      5.666806   335A      5.694250   336A      5.742852  
     337A      5.761599   338A      5.766191   339A      5.789528  
     340A      5.854237   341A      5.928194   342A      5.933790  
     343A      5.991803   344A      6.131065   345A      6.132763  
     346A      6.166279   347A      6.220584   348A      6.253813  
     349A      6.386846   350A      6.394335   351A      6.397860  
     352A      6.431270   353A      6.521686   354A      6.555041  
     355A      6.649909   356A      6.682406   357A      6.710210  
     358A      6.763342   359A      6.850085   360A      6.871739  
     361A      6.908204   362A      6.928817   363A      6.975808  
     364A      7.043486   365A      7.111913   366A      7.129310  
     367A      7.197050   368A      7.213963   369A      7.299991  
     370A      7.361400   371A      7.428333   372A      7.440587  
     373A      7.497875   374A      7.508912   375A      7.646079  
     376A      7.661515   377A      7.707703   378A      7.755776  
     379A      7.756967   380A      7.782194   381A      7.799957  
     382A      7.842271   383A      7.964567   384A      8.008478  
     385A      8.018419   386A      8.093595   387A      8.149847  
     388A      8.162127   389A      8.240984   390A      8.540712  
     391A      8.619532   392A      8.845532   393A      8.970830  
     394A      9.253382   395A      9.580897   396A      9.803912  
     397A      9.863001   398A     10.084244   399A     10.195306  
     400A     10.556812   401A     10.812507   402A     11.282305  
     403A     11.769870   404A     11.859302   405A     12.429092  
     406A     12.624773   407A     12.887711   408A     13.999495  
     409A     16.050236   410A     17.948610   411A     19.035968  
     412A     51.785988   413A     60.182414   414A     67.344289  

    Final Occupation by Irrep:
              A 
    DOCC [    12 ]

  @DF-RHF Final Energy:  -169.00336506116173

   => Energetics <=

    Nuclear Repulsion Energy =             71.1611145121232624
    One-Electron Energy =                -371.5076992422553985
    Two-Electron Energy =                 131.3432196689703915
    Total Energy =                       -169.0033650611617304

Computation Completed


Properties will be evaluated at   0.000000,   0.000000,   0.000000 [a0]

Properties computed using the SCF density matrix

  Nuclear Dipole Moment: [e a0]
     X:   -67.9983      Y:     6.1664      Z:    -0.0000

  Electronic Dipole Moment: [e a0]
     X:    67.3761      Y:    -7.8084      Z:     0.0000

  Dipole Moment: [e a0]
     X:    -0.6221      Y:    -1.6420      Z:    -0.0000     Total:     1.7559

  Dipole Moment: [D]
     X:    -1.5813      Y:    -4.1735      Z:    -0.0000     Total:     4.4631


*** tstop() called on node51.bme.utexas.edu at Tue Sep 10 12:07:34 2019
Module time:
	user time   =      40.61 seconds =       0.68 minutes
	system time =       1.28 seconds =       0.02 minutes
	total time  =         12 seconds =       0.20 minutes
Total time:
	user time   =     157.01 seconds =       2.62 minutes
	system time =       4.12 seconds =       0.07 minutes
	total time  =         44 seconds =       0.73 minutes
  Constructing Basis Sets for SAPT...

   => Loading Basis Set <=

    Name: (AUG-CC-PVTZ AUX)
    Role: RIFIT
    Keyword: DF_BASIS_SAPT
    atoms 1, 7             entry C          line   148 file /home/xy3866/psi4conda/share/psi4/basis/aug-cc-pvtz-ri.gbs 
    atoms 2, 5-6, 8, 11-12 entry H          line    30 file /home/xy3866/psi4conda/share/psi4/basis/aug-cc-pvtz-ri.gbs 
    atoms 3, 9             entry O          line   264 file /home/xy3866/psi4conda/share/psi4/basis/aug-cc-pvtz-ri.gbs 
    atoms 4, 10            entry N          line   206 file /home/xy3866/psi4conda/share/psi4/basis/aug-cc-pvtz-ri.gbs 


  //>>>>>>>>>>>>>>>>>>>>>>>>>>>>>>>>>>>//
  //               SAPT2+              //
  //<<<<<<<<<<<<<<<<<<<<<<<<<<<<<<<<<<<//


*** tstart() called on node51.bme.utexas.edu
*** at Tue Sep 10 12:07:34 2019

        SAPT2+  
    Ed Hohenstein
     6 June 2009

      Orbital Information
  --------------------------
    NSO        =       414
    NMO        =       414
    NRI        =       912
    NOCC A     =        12
    NOCC B     =        12
    FOCC A     =         3
    FOCC B     =         3
    NVIR A     =       402
    NVIR B     =       402

    Estimated memory usage: 1737.6 MB

    Natural Orbital Cutoff:   1.000E-06
    Disp(T3) Truncation:            Yes
    CCD (vv|vv) Truncation:         Yes
    MBPT T2 Truncation:             Yes

    Monomer A: 216 virtual orbitals dropped
    Monomer B: 217 virtual orbitals dropped

    Elst10,r            =    -0.067613358438 [Eh]
    Exch10 (S^2)        =     0.089032725805 [Eh]
    Exch10              =     0.091445100872 [Eh]
    Ind20,r (A<-B)      =    -0.022599654545 [Eh]
    Ind20,r (B<-A)      =    -0.023155876193 [Eh]
    Ind20,r             =    -0.045755530738 [Eh]
    Exch-Ind20,r (A<-B) =     0.013171224703 [Eh]
    Exch-Ind20,r (B<-A) =     0.013410607384 [Eh]
    Exch-Ind20,r        =     0.026581832087 [Eh]
    Disp20              =    -0.024651926815 [Eh]
    Disp20 (NO)         =    -0.021673808595 [Eh]
    Exch-Disp20         =     0.005470844649 [Eh]
    Elst12,r            =     0.001393059574 [Eh]
    Exch11              =     0.000455247379 [Eh]
    Exch12              =     0.009014485174 [Eh]
    Ind22               =    -0.006001920039 [Eh]
    Disp21              =     0.002310041301 [Eh]
    Disp22 (SDQ)        =    -0.000333892193 [Eh]

    (i =   1 of   9)         33 seconds
    (i =   2 of   9)         63 seconds
    (i =   3 of   9)         91 seconds
    (i =   4 of   9)        119 seconds
    (i =   5 of   9)        147 seconds
    (i =   6 of   9)        174 seconds
    (i =   7 of   9)        200 seconds
    (i =   8 of   9)        227 seconds
    (i =   9 of   9)        256 seconds

    Disp220 (T)         =    -0.001928281124 [Eh]

    (i =   1 of   9)         30 seconds
    (i =   2 of   9)         60 seconds
    (i =   3 of   9)         90 seconds
    (i =   4 of   9)        120 seconds
    (i =   5 of   9)        150 seconds
    (i =   6 of   9)        179 seconds
    (i =   7 of   9)        204 seconds
    (i =   8 of   9)        229 seconds
    (i =   9 of   9)        254 seconds

    Disp202 (T)         =    -0.001897050355 [Eh]

    Disp22 (T)          =    -0.003825331480 [Eh]

    Est. Disp220 (T)    =    -0.002193239132 [Eh]
    Est. Disp202 (T)    =    -0.002157717058 [Eh]

    Est. Disp22 (T)     =    -0.004350956191 [Eh]

    SAPT Results 
  --------------------------------------------------------------------------------------------------------
    Electrostatics                -66.22029886 [mEh]     -41.55386489 [kcal/mol]    -173.86137071 [kJ/mol]
      Elst10,r                    -67.61335844 [mEh]     -42.42802297 [kcal/mol]    -177.51884812 [kJ/mol]
      Elst12,r                      1.39305957 [mEh]       0.87415808 [kcal/mol]       3.65747741 [kJ/mol]

    Exchange                      100.91483343 [mEh]      63.32501402 [kcal/mol]     264.95185866 [kJ/mol]
      Exch10                       91.44510087 [mEh]      57.38266713 [kcal/mol]     240.08907926 [kJ/mol]
      Exch10(S^2)                  89.03272581 [mEh]      55.86887892 [kcal/mol]     233.75538940 [kJ/mol]
      Exch11(S^2)                   0.45524738 [mEh]       0.28567204 [kcal/mol]       1.19525183 [kJ/mol]
      Exch12(S^2)                   9.01448517 [mEh]       5.65667485 [kcal/mol]      23.66752756 [kJ/mol]

    Induction                     -38.41528317 [mEh]     -24.10595413 [kcal/mol]    -100.85931208 [kJ/mol]
      Ind20,r                     -45.75553074 [mEh]     -28.71202902 [kcal/mol]    -120.13112940 [kJ/mol]
      Ind22                        -6.00192004 [mEh]      -3.76626169 [kcal/mol]     -15.75803889 [kJ/mol]
      Exch-Ind20,r                 26.58183209 [mEh]      16.68035147 [kcal/mol]      69.79059053 [kJ/mol]
      Exch-Ind22                    3.48683598 [mEh]       2.18802261 [kcal/mol]       9.15468659 [kJ/mol]
      delta HF,r (2)              -16.72650046 [mEh]     -10.49603750 [kcal/mol]     -43.91542091 [kJ/mol]

    Dispersion                    -21.55588925 [mEh]     -13.52652472 [kcal/mol]     -56.59497942 [kJ/mol]
      Disp20                      -24.65192681 [mEh]     -15.46931762 [kcal/mol]     -64.72362494 [kJ/mol]
      Disp21                        2.31004130 [mEh]       1.44957280 [kcal/mol]       6.06501260 [kJ/mol]
      Disp22 (SDQ)                 -0.33389219 [mEh]      -0.20952051 [kcal/mol]      -0.87663383 [kJ/mol]
      Disp22 (T)                   -3.82533148 [mEh]      -2.40043174 [kcal/mol]     -10.04340642 [kJ/mol]
      Est. Disp22 (T)              -4.35095619 [mEh]      -2.73026623 [kcal/mol]     -11.42343390 [kJ/mol]
      Exch-Disp20                   5.47084465 [mEh]       3.43300685 [kcal/mol]      14.36370065 [kJ/mol]

  Total HF                        -12.06845668 [mEh]      -7.57307090 [kcal/mol]     -31.68572864 [kJ/mol]
  Total SAPT0                     -31.24953884 [mEh]     -19.60938167 [kcal/mol]     -82.04565293 [kJ/mol]
  Total SAPT2                     -22.90183078 [mEh]     -14.37111578 [kcal/mol]     -60.12874842 [kJ/mol]
  Total SAPT2+                    -25.27663786 [mEh]     -15.86132972 [kcal/mol]     -66.36380356 [kJ/mol]

  Special recipe for scaled SAPT0 (see Manual):
    Electrostatics sSAPT0         -67.61335844 [mEh]     -42.42802297 [kcal/mol]    -177.51884812 [kJ/mol]
    Exchange sSAPT0                91.44510087 [mEh]      57.38266713 [kcal/mol]     240.08907926 [kJ/mol]
    Induction sSAPT0              -33.68039033 [mEh]     -21.13476402 [kcal/mol]     -88.42785264 [kJ/mol]
    Dispersion sSAPT0             -18.72422017 [mEh]     -11.74962554 [kcal/mol]     -49.16043327 [kJ/mol]
  Total sSAPT0                    -28.57286806 [mEh]     -17.92974540 [kcal/mol]     -75.01805477 [kJ/mol]
  --------------------------------------------------------------------------------------------------------

*** tstop() called on node51.bme.utexas.edu at Tue Sep 10 12:21:08 2019
Module time:
	user time   =    2844.75 seconds =      47.41 minutes
	system time =      87.38 seconds =       1.46 minutes
	total time  =        814 seconds =      13.57 minutes
Total time:
	user time   =    3002.09 seconds =      50.03 minutes
	system time =      91.52 seconds =       1.53 minutes
	total time  =        858 seconds =      14.30 minutes

    Psi4 stopped on: Tuesday, 10 September 2019 12:21PM
    Psi4 wall time for execution: 0:14:17.76

*** Psi4 exiting successfully. Buy a developer a beer!
