
    -----------------------------------------------------------------------
          Psi4: An Open-Source Ab Initio Electronic Structure Package
                               Psi4 1.3.2 release

                         Git: Rev {HEAD} ecbda83 


    R. M. Parrish, L. A. Burns, D. G. A. Smith, A. C. Simmonett,
    A. E. DePrince III, E. G. Hohenstein, U. Bozkaya, A. Yu. Sokolov,
    R. Di Remigio, R. M. Richard, J. F. Gonthier, A. M. James,
    H. R. McAlexander, A. Kumar, M. Saitow, X. Wang, B. P. Pritchard,
    P. Verma, H. F. Schaefer III, K. Patkowski, R. A. King, E. F. Valeev,
    F. A. Evangelista, J. M. Turney, T. D. Crawford, and C. D. Sherrill,
    J. Chem. Theory Comput. 13(7) pp 3185--3197 (2017).
    (doi: 10.1021/acs.jctc.7b00174)


                         Additional Contributions by
    P. Kraus, H. Kruse, M. H. Lechner, M. C. Schieber, R. A. Shaw,
    A. Alenaizan, R. Galvelis, Z. L. Glick, S. Lehtola, and J. P. Misiewicz

    -----------------------------------------------------------------------


    Psi4 started on: Monday, 09 September 2019 10:54PM

    Process ID: 66322
    Host:       node54.bme.utexas.edu
    PSIDATADIR: /home/xy3866/psi4conda/share/psi4
    Memory:     500.0 MiB
    Threads:    4
    
  ==> Input File <==

--------------------------------------------------------------------------
#psi4
#
memory 32 gb

molecule  {
0 1
  C        2.1022740    -0.1999910     0.0000010
  H        3.1931760    -0.2048250     0.0000000
  N        1.3929100    -1.2773340     0.0000000
  H        2.0119970    -2.0793170    -0.0000010
  N        1.5658380     1.0343930     0.0000000
  H        0.5512430     1.1716950     0.0000000
  H        2.1722770     1.8295020    -0.0000010
--
0 1
  C       -2.3981488     0.2242851     0.0000000
  H       -3.4890508     0.2291191     0.0000000
  N       -1.6887848     1.3016281     0.0000000
  H       -2.3078718     2.1036111     0.0000000
  N       -1.8617128    -1.0100989     0.0000000
  H       -0.8471178    -1.1474009     0.0000000
  H       -2.4681518    -1.8052079     0.0000000
units angstrom
no_reorient  #important for SAPT in psi4, default
symmetry c1  #important for SAPT in psi4, default
}

set {
basis aug-cc-pVTZ
scf_type DF
freeze_core True
}
energy('sapt2+')
--------------------------------------------------------------------------

  Memory set to  29.802 GiB by Python driver.

  //>>>>>>>>>>>>>>>>>>>>>>>>>>>>>>>>>>>//
  //              Dimer HF             //
  //<<<<<<<<<<<<<<<<<<<<<<<<<<<<<<<<<<<//


*** tstart() called on node54.bme.utexas.edu
*** at Mon Sep  9 22:54:19 2019

   => Loading Basis Set <=

    Name: AUG-CC-PVTZ
    Role: ORBITAL
    Keyword: BASIS
    atoms 1, 8                    entry C          line   235 file /home/xy3866/psi4conda/share/psi4/basis/aug-cc-pvtz.gbs 
    atoms 2, 4, 6-7, 9, 11, 13-14 entry H          line    36 file /home/xy3866/psi4conda/share/psi4/basis/aug-cc-pvtz.gbs 
    atoms 3, 5, 10, 12            entry N          line   281 file /home/xy3866/psi4conda/share/psi4/basis/aug-cc-pvtz.gbs 


         ---------------------------------------------------------
                                   SCF
               by Justin Turney, Rob Parrish, Andy Simmonett
                          and Daniel G. A. Smith
                              RHF Reference
                        4 Threads,  30517 MiB Core
         ---------------------------------------------------------

  ==> Geometry <==

    Molecular point group: c1
    Full point group: C1

    Geometry (in Angstrom), charge = 0, multiplicity = 1:

       Center              X                  Y                   Z               Mass       
    ------------   -----------------  -----------------  -----------------  -----------------
         C            2.250211400000    -0.212138050000     0.000000886638    12.000000000000
         H            3.341113400000    -0.216972050000    -0.000000113362     1.007825032230
         N            1.540847400000    -1.289481050000    -0.000000113362    14.003074004430
         H            2.159934400000    -2.091464050000    -0.000001113362     1.007825032230
         N            1.713775400000     1.022245950000    -0.000000113362    14.003074004430
         H            0.699180400000     1.159547950000    -0.000000113362     1.007825032230
         H            2.320214400000     1.817354950000    -0.000001113362     1.007825032230
         C           -2.250211400000     0.212138050000    -0.000000113362    12.000000000000
         H           -3.341113400000     0.216972050000    -0.000000113362     1.007825032230
         N           -1.540847400000     1.289481050000    -0.000000113362    14.003074004430
         H           -2.159934400000     2.091464050000    -0.000000113362     1.007825032230
         N           -1.713775400000    -1.022245950000    -0.000000113362    14.003074004430
         H           -0.699180400000    -1.159547950000    -0.000000113362     1.007825032230
         H           -2.320214400000    -1.817354950000    -0.000000113362     1.007825032230

  Running in c1 symmetry.

  Rotational constants: A =      0.18002  B =      0.05342  C =      0.04120 [cm^-1]
  Rotational constants: A =   5396.77718  B =   1601.53477  C =   1235.03016 [MHz]
  Nuclear repulsion =  222.166141875229471

  Charge       = 0
  Multiplicity = 1
  Electrons    = 48
  Nalpha       = 24
  Nbeta        = 24

  ==> Algorithm <==

  SCF Algorithm Type is DF.
  DIIS enabled.
  MOM disabled.
  Fractional occupation disabled.
  Guess Type is SAD.
  Energy threshold   = 1.00e-08
  Density threshold  = 1.00e-08
  Integral threshold = 0.00e+00

  ==> Primary Basis <==

  Basis Set: AUG-CC-PVTZ
    Blend: AUG-CC-PVTZ
    Number of shells: 156
    Number of basis function: 460
    Number of Cartesian functions: 530
    Spherical Harmonics?: true
    Max angular momentum: 3

   => Loading Basis Set <=

    Name: (AUG-CC-PVTZ AUX)
    Role: JKFIT
    Keyword: DF_BASIS_SCF
    atoms 1, 8                    entry C          line   162 file /home/xy3866/psi4conda/share/psi4/basis/aug-cc-pvtz-jkfit.gbs 
    atoms 2, 4, 6-7, 9, 11, 13-14 entry H          line    70 file /home/xy3866/psi4conda/share/psi4/basis/aug-cc-pvtz-jkfit.gbs 
    atoms 3, 5, 10, 12            entry N          line   224 file /home/xy3866/psi4conda/share/psi4/basis/aug-cc-pvtz-jkfit.gbs 

  ==> Pre-Iterations <==

   -------------------------------------------------------
    Irrep   Nso     Nmo     Nalpha   Nbeta   Ndocc  Nsocc
   -------------------------------------------------------
     A        460     460       0       0       0       0
   -------------------------------------------------------
    Total     460     460      24      24      24       0
   -------------------------------------------------------

  ==> Integral Setup <==

  ==> DiskDFJK: Density-Fitted J/K Matrices <==

    J tasked:                  Yes
    K tasked:                  Yes
    wK tasked:                  No
    OpenMP threads:              4
    Integrals threads:           4
    Memory [MiB]:            22888
    Algorithm:                Core
    Integral Cache:           SAVE
    Schwarz Cutoff:          1E-12
    Fitting Condition:       1E-10

   => Auxiliary Basis Set <=

  Basis Set: (AUG-CC-PVTZ AUX)
    Blend: AUG-CC-PVTZ-JKFIT
    Number of shells: 292
    Number of basis function: 992
    Number of Cartesian functions: 1226
    Spherical Harmonics?: true
    Max angular momentum: 4

  Minimum eigenvalue in the overlap matrix is 2.1414349691E-05.
  Using Symmetric Orthogonalization.

  SCF Guess: Superposition of Atomic Densities via on-the-fly atomic UHF.

  ==> Iterations <==

                           Total Energy        Delta E     RMS |[F,P]|

   @DF-RHF iter SAD:  -296.90435051745538   -2.96904e+02   0.00000e+00 
   @DF-RHF iter   1:  -298.03503030145094   -1.13068e+00   1.63555e-03 DIIS
   @DF-RHF iter   2:  -298.22644791782773   -1.91418e-01   9.34349e-04 DIIS
   @DF-RHF iter   3:  -298.30015323917468   -7.37053e-02   1.32929e-04 DIIS
   @DF-RHF iter   4:  -298.30273996142199   -2.58672e-03   6.15732e-05 DIIS
   @DF-RHF iter   5:  -298.30317406077262   -4.34099e-04   1.16242e-05 DIIS
   @DF-RHF iter   6:  -298.30322122511052   -4.71643e-05   5.49367e-06 DIIS
   @DF-RHF iter   7:  -298.30322983025917   -8.60515e-06   2.14762e-06 DIIS
   @DF-RHF iter   8:  -298.30323160032270   -1.77006e-06   7.20613e-07 DIIS
   @DF-RHF iter   9:  -298.30323178143249   -1.81110e-07   2.39695e-07 DIIS
   @DF-RHF iter  10:  -298.30323180099094   -1.95585e-08   6.26730e-08 DIIS
   @DF-RHF iter  11:  -298.30323180236087   -1.36993e-09   1.22555e-08 DIIS
   @DF-RHF iter  12:  -298.30323180240322   -4.23483e-11   2.00122e-09 DIIS
  Energy and wave function converged.


  ==> Post-Iterations <==

    Orbital Energies [Eh]
    ---------------------

    Doubly Occupied:                                                      

       1A    -15.561164     2A    -15.561164     3A    -15.516024  
       4A    -15.516024     5A    -11.310806     6A    -11.310805  
       7A     -1.249254     8A     -1.246043     9A     -1.132096  
      10A     -1.128137    11A     -0.823126    12A     -0.813951  
      13A     -0.737300    14A     -0.730715    15A     -0.639943  
      16A     -0.620948    17A     -0.608631    18A     -0.606741  
      19A     -0.520454    20A     -0.516306    21A     -0.434175  
      22A     -0.411388    23A     -0.355379    24A     -0.349204  

    Virtual:                                                              

      25A      0.028346    26A      0.031585    27A      0.037899  
      28A      0.048911    29A      0.050479    30A      0.069590  
      31A      0.080931    32A      0.083317    33A      0.086097  
      34A      0.089922    35A      0.120505    36A      0.129710  
      37A      0.131895    38A      0.132813    39A      0.137209  
      40A      0.137819    41A      0.140321    42A      0.145074  
      43A      0.158244    44A      0.159484    45A      0.168287  
      46A      0.173798    47A      0.188979    48A      0.189164  
      49A      0.213701    50A      0.216607    51A      0.220700  
      52A      0.225812    53A      0.229726    54A      0.239300  
      55A      0.250404    56A      0.254302    57A      0.280025  
      58A      0.292403    59A      0.294442    60A      0.295397  
      61A      0.303144    62A      0.308985    63A      0.311652  
      64A      0.317195    65A      0.323211    66A      0.337066  
      67A      0.348893    68A      0.357819    69A      0.361556  
      70A      0.365641    71A      0.366287    72A      0.368829  
      73A      0.375969    74A      0.378569    75A      0.393538  
      76A      0.395201    77A      0.397335    78A      0.399033  
      79A      0.425535    80A      0.429450    81A      0.430298  
      82A      0.433151    83A      0.436743    84A      0.447759  
      85A      0.454137    86A      0.456706    87A      0.463770  
      88A      0.476374    89A      0.509452    90A      0.512036  
      91A      0.523780    92A      0.524216    93A      0.527954  
      94A      0.530140    95A      0.543364    96A      0.557640  
      97A      0.567489    98A      0.570608    99A      0.571191  
     100A      0.592973   101A      0.607545   102A      0.609284  
     103A      0.633235   104A      0.640105   105A      0.640511  
     106A      0.650606   107A      0.665526   108A      0.668027  
     109A      0.668636   110A      0.692682   111A      0.694795  
     112A      0.713598   113A      0.715940   114A      0.716315  
     115A      0.728970   116A      0.747983   117A      0.753512  
     118A      0.757083   119A      0.766315   120A      0.771365  
     121A      0.773695   122A      0.776821   123A      0.784883  
     124A      0.788733   125A      0.806937   126A      0.812567  
     127A      0.854934   128A      0.874151   129A      0.892990  
     130A      0.894052   131A      0.899836   132A      0.914638  
     133A      0.920359   134A      0.926348   135A      0.935136  
     136A      0.938078   137A      0.943678   138A      0.950321  
     139A      0.953074   140A      0.953319   141A      0.967158  
     142A      0.977494   143A      0.990801   144A      0.992528  
     145A      1.004360   146A      1.013899   147A      1.014635  
     148A      1.019305   149A      1.023055   150A      1.023803  
     151A      1.038271   152A      1.055625   153A      1.062565  
     154A      1.071978   155A      1.083273   156A      1.093007  
     157A      1.094848   158A      1.101532   159A      1.126650  
     160A      1.133045   161A      1.133781   162A      1.135742  
     163A      1.137853   164A      1.166369   165A      1.173774  
     166A      1.194342   167A      1.199722   168A      1.211867  
     169A      1.214199   170A      1.219895   171A      1.241380  
     172A      1.248257   173A      1.258025   174A      1.273622  
     175A      1.274776   176A      1.275573   177A      1.275712  
     178A      1.292488   179A      1.310130   180A      1.334350  
     181A      1.335219   182A      1.346635   183A      1.350593  
     184A      1.350859   185A      1.354095   186A      1.381702  
     187A      1.395922   188A      1.399144   189A      1.424329  
     190A      1.427446   191A      1.439416   192A      1.447374  
     193A      1.453937   194A      1.455059   195A      1.464746  
     196A      1.465293   197A      1.488368   198A      1.504397  
     199A      1.506312   200A      1.512835   201A      1.520174  
     202A      1.527740   203A      1.532140   204A      1.551291  
     205A      1.567074   206A      1.572546   207A      1.584547  
     208A      1.596145   209A      1.611682   210A      1.631369  
     211A      1.653887   212A      1.657045   213A      1.659886  
     214A      1.667241   215A      1.684215   216A      1.699926  
     217A      1.748145   218A      1.758087   219A      1.762153  
     220A      1.783544   221A      1.805943   222A      1.807753  
     223A      1.826452   224A      1.872517   225A      1.881769  
     226A      1.926863   227A      1.947222   228A      1.956539  
     229A      1.968554   230A      1.983701   231A      1.989308  
     232A      1.992797   233A      2.014217   234A      2.027982  
     235A      2.042138   236A      2.064815   237A      2.074938  
     238A      2.088985   239A      2.124354   240A      2.124993  
     241A      2.127812   242A      2.133017   243A      2.135636  
     244A      2.164563   245A      2.195319   246A      2.203338  
     247A      2.212141   248A      2.213043   249A      2.239427  
     250A      2.245980   251A      2.260360   252A      2.283131  
     253A      2.289122   254A      2.307087   255A      2.328618  
     256A      2.338796   257A      2.371171   258A      2.407474  
     259A      2.417956   260A      2.426186   261A      2.440497  
     262A      2.447544   263A      2.464834   264A      2.471325  
     265A      2.487345   266A      2.528002   267A      2.546820  
     268A      2.547189   269A      2.569494   270A      2.589383  
     271A      2.596165   272A      2.614589   273A      2.624277  
     274A      2.666448   275A      2.669738   276A      2.680203  
     277A      2.685134   278A      2.700964   279A      2.718051  
     280A      2.721228   281A      2.766425   282A      2.825265  
     283A      2.830804   284A      2.874436   285A      2.936878  
     286A      2.955417   287A      3.017567   288A      3.033301  
     289A      3.106607   290A      3.116676   291A      3.130446  
     292A      3.138176   293A      3.239312   294A      3.292199  
     295A      3.376848   296A      3.379837   297A      3.387638  
     298A      3.438775   299A      3.491461   300A      3.491872  
     301A      3.584136   302A      3.584325   303A      3.621843  
     304A      3.661365   305A      3.691066   306A      3.700114  
     307A      3.708310   308A      3.764465   309A      3.779764  
     310A      3.816726   311A      3.819507   312A      3.832753  
     313A      3.837948   314A      3.876861   315A      3.900096  
     316A      3.930714   317A      3.940166   318A      3.967429  
     319A      3.989442   320A      3.994314   321A      4.056697  
     322A      4.085273   323A      4.088891   324A      4.092472  
     325A      4.117237   326A      4.121092   327A      4.129057  
     328A      4.136135   329A      4.174635   330A      4.189522  
     331A      4.199014   332A      4.214403   333A      4.235563  
     334A      4.257984   335A      4.263700   336A      4.288405  
     337A      4.292789   338A      4.301895   339A      4.326672  
     340A      4.349936   341A      4.376374   342A      4.391354  
     343A      4.392260   344A      4.397517   345A      4.456229  
     346A      4.458921   347A      4.469715   348A      4.488129  
     349A      4.529494   350A      4.538020   351A      4.538330  
     352A      4.596561   353A      4.597096   354A      4.626636  
     355A      4.628586   356A      4.660198   357A      4.688249  
     358A      4.689062   359A      4.745223   360A      4.754566  
     361A      4.769872   362A      4.779956   363A      4.820272  
     364A      4.828163   365A      4.835801   366A      4.865883  
     367A      4.866721   368A      4.884273   369A      4.893893  
     370A      4.914634   371A      4.916136   372A      4.919277  
     373A      4.923741   374A      4.965938   375A      4.992503  
     376A      5.010147   377A      5.022080   378A      5.044844  
     379A      5.089576   380A      5.119294   381A      5.147457  
     382A      5.164735   383A      5.213700   384A      5.217914  
     385A      5.218600   386A      5.224091   387A      5.257589  
     388A      5.273842   389A      5.321231   390A      5.337015  
     391A      5.398528   392A      5.404537   393A      5.419385  
     394A      5.423752   395A      5.437316   396A      5.486949  
     397A      5.495372   398A      5.514406   399A      5.527536  
     400A      5.557747   401A      5.566369   402A      5.581179  
     403A      5.640721   404A      5.653893   405A      5.654478  
     406A      5.667035   407A      5.703486   408A      5.725287  
     409A      5.729129   410A      5.729463   411A      5.765923  
     412A      5.768165   413A      5.795319   414A      5.804980  
     415A      5.824373   416A      5.852848   417A      5.894833  
     418A      5.943824   419A      5.956901   420A      5.972027  
     421A      5.974874   422A      5.981386   423A      6.106071  
     424A      6.130787   425A      6.152227   426A      6.160388  
     427A      6.163102   428A      6.190722   429A      6.201101  
     430A      6.231085   431A      6.273266   432A      6.277122  
     433A      6.360268   434A      6.365590   435A      6.544770  
     436A      6.551868   437A      6.558768   438A      6.578346  
     439A      6.678550   440A      6.689931   441A      6.699528  
     442A      6.709372   443A      6.909177   444A      6.920437  
     445A      7.056922   446A      7.071058   447A      7.439360  
     448A      7.482137   449A      7.545147   450A      7.566416  
     451A      7.639295   452A      7.677964   453A      7.768115  
     454A      7.868186   455A     17.085117   456A     17.215787  
     457A     17.225383   458A     17.657123   459A     18.828527  
     460A     18.959812  

    Final Occupation by Irrep:
              A 
    DOCC [    24 ]

  @DF-RHF Final Energy:  -298.30323180240322

   => Energetics <=

    Nuclear Repulsion Energy =            222.1661418752294708
    One-Electron Energy =                -845.5391924574249742
    Two-Electron Energy =                 325.0698187797922287
    Total Energy =                       -298.3032318024032179

Computation Completed


Properties will be evaluated at   0.000000,   0.000000,   0.000000 [a0]

Properties computed using the SCF density matrix

  Nuclear Dipole Moment: [e a0]
     X:    -0.0000      Y:    -0.0000      Z:    -0.0000

  Electronic Dipole Moment: [e a0]
     X:     0.0000      Y:     0.0000      Z:     0.0000

  Dipole Moment: [e a0]
     X:     0.0000      Y:     0.0000      Z:    -0.0000     Total:     0.0000

  Dipole Moment: [D]
     X:     0.0000      Y:     0.0000      Z:    -0.0000     Total:     0.0000


*** tstop() called on node54.bme.utexas.edu at Mon Sep  9 22:54:43 2019
Module time:
	user time   =      85.17 seconds =       1.42 minutes
	system time =       1.49 seconds =       0.02 minutes
	total time  =         24 seconds =       0.40 minutes
Total time:
	user time   =      85.17 seconds =       1.42 minutes
	system time =       1.49 seconds =       0.02 minutes
	total time  =         24 seconds =       0.40 minutes

  //>>>>>>>>>>>>>>>>>>>>>>>>>>>>>>>>>>>//
  //            Monomer A HF           //
  //<<<<<<<<<<<<<<<<<<<<<<<<<<<<<<<<<<<//


*** tstart() called on node54.bme.utexas.edu
*** at Mon Sep  9 22:54:43 2019

   => Loading Basis Set <=

    Name: AUG-CC-PVTZ
    Role: ORBITAL
    Keyword: BASIS
    atoms 1, 8                    entry C          line   235 file /home/xy3866/psi4conda/share/psi4/basis/aug-cc-pvtz.gbs 
    atoms 2, 4, 6-7, 9, 11, 13-14 entry H          line    36 file /home/xy3866/psi4conda/share/psi4/basis/aug-cc-pvtz.gbs 
    atoms 3, 5, 10, 12            entry N          line   281 file /home/xy3866/psi4conda/share/psi4/basis/aug-cc-pvtz.gbs 


         ---------------------------------------------------------
                                   SCF
               by Justin Turney, Rob Parrish, Andy Simmonett
                          and Daniel G. A. Smith
                              RHF Reference
                        4 Threads,  30517 MiB Core
         ---------------------------------------------------------

  ==> Geometry <==

    Molecular point group: c1
    Full point group: C1

    Geometry (in Angstrom), charge = 0, multiplicity = 1:

       Center              X                  Y                   Z               Mass       
    ------------   -----------------  -----------------  -----------------  -----------------
         C            2.250211400000    -0.212138050000     0.000000886638    12.000000000000
         H            3.341113400000    -0.216972050000    -0.000000113362     1.007825032230
         N            1.540847400000    -1.289481050000    -0.000000113362    14.003074004430
         H            2.159934400000    -2.091464050000    -0.000001113362     1.007825032230
         N            1.713775400000     1.022245950000    -0.000000113362    14.003074004430
         H            0.699180400000     1.159547950000    -0.000000113362     1.007825032230
         H            2.320214400000     1.817354950000    -0.000001113362     1.007825032230
      Gh(C)          -2.250211400000     0.212138050000    -0.000000113362    12.000000000000
      Gh(H)          -3.341113400000     0.216972050000    -0.000000113362     1.007825032230
      Gh(N)          -1.540847400000     1.289481050000    -0.000000113362    14.003074004430
      Gh(H)          -2.159934400000     2.091464050000    -0.000000113362     1.007825032230
      Gh(N)          -1.713775400000    -1.022245950000    -0.000000113362    14.003074004430
      Gh(H)          -0.699180400000    -1.159547950000    -0.000000113362     1.007825032230
      Gh(H)          -2.320214400000    -1.817354950000    -0.000000113362     1.007825032230

  Running in c1 symmetry.

  Rotational constants: A =      0.18002  B =      0.05342  C =      0.04120 [cm^-1]
  Rotational constants: A =   5396.77718  B =   1601.53477  C =   1235.03016 [MHz]
  Nuclear repulsion =   72.180708619553769

  Charge       = 0
  Multiplicity = 1
  Electrons    = 24
  Nalpha       = 12
  Nbeta        = 12

  ==> Algorithm <==

  SCF Algorithm Type is DF.
  DIIS enabled.
  MOM disabled.
  Fractional occupation disabled.
  Guess Type is SAD.
  Energy threshold   = 1.00e-08
  Density threshold  = 1.00e-08
  Integral threshold = 0.00e+00

  ==> Primary Basis <==

  Basis Set: AUG-CC-PVTZ
    Blend: AUG-CC-PVTZ
    Number of shells: 156
    Number of basis function: 460
    Number of Cartesian functions: 530
    Spherical Harmonics?: true
    Max angular momentum: 3

   => Loading Basis Set <=

    Name: (AUG-CC-PVTZ AUX)
    Role: JKFIT
    Keyword: DF_BASIS_SCF
    atoms 1, 8                    entry C          line   162 file /home/xy3866/psi4conda/share/psi4/basis/aug-cc-pvtz-jkfit.gbs 
    atoms 2, 4, 6-7, 9, 11, 13-14 entry H          line    70 file /home/xy3866/psi4conda/share/psi4/basis/aug-cc-pvtz-jkfit.gbs 
    atoms 3, 5, 10, 12            entry N          line   224 file /home/xy3866/psi4conda/share/psi4/basis/aug-cc-pvtz-jkfit.gbs 

  ==> Pre-Iterations <==

   -------------------------------------------------------
    Irrep   Nso     Nmo     Nalpha   Nbeta   Ndocc  Nsocc
   -------------------------------------------------------
     A        460     460       0       0       0       0
   -------------------------------------------------------
    Total     460     460      12      12      12       0
   -------------------------------------------------------

  ==> Integral Setup <==

  ==> DiskDFJK: Density-Fitted J/K Matrices <==

    J tasked:                  Yes
    K tasked:                  Yes
    wK tasked:                  No
    OpenMP threads:              4
    Integrals threads:           4
    Memory [MiB]:            22888
    Algorithm:                Core
    Integral Cache:           LOAD
    Schwarz Cutoff:          1E-12
    Fitting Condition:       1E-10

   => Auxiliary Basis Set <=

  Basis Set: (AUG-CC-PVTZ AUX)
    Blend: AUG-CC-PVTZ-JKFIT
    Number of shells: 292
    Number of basis function: 992
    Number of Cartesian functions: 1226
    Spherical Harmonics?: true
    Max angular momentum: 4

  Minimum eigenvalue in the overlap matrix is 2.1414349691E-05.
  Using Symmetric Orthogonalization.

  SCF Guess: Superposition of Atomic Densities via on-the-fly atomic UHF.

  ==> Iterations <==

                           Total Energy        Delta E     RMS |[F,P]|

   @DF-RHF iter SAD:  -148.38772515931518   -1.48388e+02   0.00000e+00 
   @DF-RHF iter   1:  -148.99742290024332   -6.09698e-01   1.19321e-03 DIIS
   @DF-RHF iter   2:  -149.09941788429506   -1.01995e-01   7.03987e-04 DIIS
   @DF-RHF iter   3:  -149.14133549374040   -4.19176e-02   9.82740e-05 DIIS
   @DF-RHF iter   4:  -149.14275061042517   -1.41512e-03   4.86432e-05 DIIS
   @DF-RHF iter   5:  -149.14302817324011   -2.77563e-04   8.87989e-06 DIIS
   @DF-RHF iter   6:  -149.14305681793519   -2.86447e-05   4.19431e-06 DIIS
   @DF-RHF iter   7:  -149.14306152310684   -4.70517e-06   1.68819e-06 DIIS
   @DF-RHF iter   8:  -149.14306246472216   -9.41615e-07   4.98490e-07 DIIS
   @DF-RHF iter   9:  -149.14306255050758   -8.57854e-08   1.52261e-07 DIIS
   @DF-RHF iter  10:  -149.14306255807702   -7.56944e-09   3.78155e-08 DIIS
   @DF-RHF iter  11:  -149.14306255855047   -4.73449e-10   7.22373e-09 DIIS
  Energy and wave function converged.


  ==> Post-Iterations <==

    Orbital Energies [Eh]
    ---------------------

    Doubly Occupied:                                                      

       1A    -15.581662     2A    -15.519541     3A    -11.314766  
       4A     -1.259005     5A     -1.137053     6A     -0.829943  
       7A     -0.745817     8A     -0.639654     9A     -0.615827  
      10A     -0.530070    11A     -0.419647    12A     -0.359462  

    Virtual:                                                              

      13A      0.021258    14A      0.030060    15A      0.036597  
      16A      0.049341    17A      0.050995    18A      0.069840  
      19A      0.074721    20A      0.075022    21A      0.086320  
      22A      0.086487    23A      0.096494    24A      0.112244  
      25A      0.126350    26A      0.126750    27A      0.130026  
      28A      0.134416    29A      0.137914    30A      0.139866  
      31A      0.148096    32A      0.159567    33A      0.162697  
      34A      0.166298    35A      0.186554    36A      0.189535  
      37A      0.194852    38A      0.210159    39A      0.220039  
      40A      0.221077    41A      0.225752    42A      0.238469  
      43A      0.247952    44A      0.251514    45A      0.270767  
      46A      0.286351    47A      0.293945    48A      0.294671  
      49A      0.302666    50A      0.303382    51A      0.311745  
      52A      0.312655    53A      0.331365    54A      0.340445  
      55A      0.344523    56A      0.355866    57A      0.360542  
      58A      0.363659    59A      0.366935    60A      0.370431  
      61A      0.371698    62A      0.376706    63A      0.383539  
      64A      0.388313    65A      0.393106    66A      0.397041  
      67A      0.409178    68A      0.415703    69A      0.429427  
      70A      0.431126    71A      0.435994    72A      0.447877  
      73A      0.453855    74A      0.454736    75A      0.469085  
      76A      0.474763    77A      0.491499    78A      0.498389  
      79A      0.501804    80A      0.510721    81A      0.528250  
      82A      0.530211    83A      0.543497    84A      0.551462  
      85A      0.570526    86A      0.582455    87A      0.584938  
      88A      0.609029    89A      0.612423    90A      0.618046  
      91A      0.622556    92A      0.629281    93A      0.641021  
      94A      0.650560    95A      0.675049    96A      0.683158  
      97A      0.691221    98A      0.698541    99A      0.706001  
     100A      0.727997   101A      0.736750   102A      0.748427  
     103A      0.751634   104A      0.768979   105A      0.775014  
     106A      0.775822   107A      0.784452   108A      0.792069  
     109A      0.804157   110A      0.809717   111A      0.810489  
     112A      0.823513   113A      0.829717   114A      0.833300  
     115A      0.851370   116A      0.859503   117A      0.870797  
     118A      0.884251   119A      0.894741   120A      0.900723  
     121A      0.910722   122A      0.921420   123A      0.923553  
     124A      0.933571   125A      0.943374   126A      0.944167  
     127A      0.956938   128A      0.973615   129A      0.977146  
     130A      0.984393   131A      0.988715   132A      0.996174  
     133A      1.000980   134A      1.015748   135A      1.016201  
     136A      1.031145   137A      1.050546   138A      1.057088  
     139A      1.068055   140A      1.069146   141A      1.076849  
     142A      1.080798   143A      1.094068   144A      1.103809  
     145A      1.106377   146A      1.110270   147A      1.113513  
     148A      1.123859   149A      1.145221   150A      1.149773  
     151A      1.181128   152A      1.182923   153A      1.199994  
     154A      1.208092   155A      1.220407   156A      1.228659  
     157A      1.245121   158A      1.246728   159A      1.252790  
     160A      1.263550   161A      1.270284   162A      1.289483  
     163A      1.291233   164A      1.303458   165A      1.319077  
     166A      1.324851   167A      1.347711   168A      1.361026  
     169A      1.367124   170A      1.370450   171A      1.376888  
     172A      1.397728   173A      1.402842   174A      1.434850  
     175A      1.453363   176A      1.453707   177A      1.468568  
     178A      1.473821   179A      1.476745   180A      1.483436  
     181A      1.486735   182A      1.498012   183A      1.516240  
     184A      1.518625   185A      1.533338   186A      1.558618  
     187A      1.564630   188A      1.580520   189A      1.583262  
     190A      1.584027   191A      1.611039   192A      1.625192  
     193A      1.636196   194A      1.643905   195A      1.661942  
     196A      1.666599   197A      1.677245   198A      1.686986  
     199A      1.696576   200A      1.716951   201A      1.733238  
     202A      1.737003   203A      1.743911   204A      1.757184  
     205A      1.770195   206A      1.775757   207A      1.780408  
     208A      1.791035   209A      1.802209   210A      1.806859  
     211A      1.839810   212A      1.868783   213A      1.878403  
     214A      1.905142   215A      1.908862   216A      1.919037  
     217A      1.931187   218A      1.943785   219A      1.963792  
     220A      1.990181   221A      2.013310   222A      2.027527  
     223A      2.059278   224A      2.071151   225A      2.084704  
     226A      2.102470   227A      2.116762   228A      2.122659  
     229A      2.145527   230A      2.149702   231A      2.165654  
     232A      2.207920   233A      2.216237   234A      2.223562  
     235A      2.245045   236A      2.268014   237A      2.292926  
     238A      2.306388   239A      2.316088   240A      2.322815  
     241A      2.336386   242A      2.354990   243A      2.372299  
     244A      2.381794   245A      2.402894   246A      2.430814  
     247A      2.436193   248A      2.449668   249A      2.454084  
     250A      2.487930   251A      2.515860   252A      2.537344  
     253A      2.547459   254A      2.558874   255A      2.573994  
     256A      2.600222   257A      2.613999   258A      2.614955  
     259A      2.663523   260A      2.666895   261A      2.678633  
     262A      2.686272   263A      2.727619   264A      2.728510  
     265A      2.777463   266A      2.814703   267A      2.836603  
     268A      2.842147   269A      2.857696   270A      2.872976  
     271A      2.922957   272A      2.952699   273A      2.961583  
     274A      2.993956   275A      3.044634   276A      3.060015  
     277A      3.115490   278A      3.130901   279A      3.143139  
     280A      3.164854   281A      3.189981   282A      3.227527  
     283A      3.243614   284A      3.297614   285A      3.365344  
     286A      3.393231   287A      3.406329   288A      3.482053  
     289A      3.494809   290A      3.526180   291A      3.596696  
     292A      3.598634   293A      3.667670   294A      3.689575  
     295A      3.759939   296A      3.785961   297A      3.815485  
     298A      3.826740   299A      3.848367   300A      3.877776  
     301A      3.928503   302A      3.972957   303A      3.992582  
     304A      4.062652   305A      4.070357   306A      4.072736  
     307A      4.102733   308A      4.108218   309A      4.116382  
     310A      4.169785   311A      4.193060   312A      4.198034  
     313A      4.214752   314A      4.254641   315A      4.298151  
     316A      4.314423   317A      4.361562   318A      4.369688  
     319A      4.410336   320A      4.424984   321A      4.441497  
     322A      4.444491   323A      4.448337   324A      4.471658  
     325A      4.529331   326A      4.533909   327A      4.567721  
     328A      4.586434   329A      4.597798   330A      4.639904  
     331A      4.653600   332A      4.660438   333A      4.684945  
     334A      4.686761   335A      4.724543   336A      4.741904  
     337A      4.748954   338A      4.774813   339A      4.794397  
     340A      4.847573   341A      4.854914   342A      4.859656  
     343A      4.868737   344A      4.884188   345A      4.886609  
     346A      4.902592   347A      4.917191   348A      4.925031  
     349A      4.965162   350A      4.975022   351A      4.979245  
     352A      4.984645   353A      5.024241   354A      5.026363  
     355A      5.055554   356A      5.071929   357A      5.077896  
     358A      5.164596   359A      5.168575   360A      5.200447  
     361A      5.205767   362A      5.209121   363A      5.242657  
     364A      5.269562   365A      5.293183   366A      5.320652  
     367A      5.327401   368A      5.328670   369A      5.353931  
     370A      5.378149   371A      5.405090   372A      5.430381  
     373A      5.450995   374A      5.452591   375A      5.488129  
     376A      5.492857   377A      5.505142   378A      5.521315  
     379A      5.569463   380A      5.589165   381A      5.640545  
     382A      5.684913   383A      5.701410   384A      5.726771  
     385A      5.748864   386A      5.765835   387A      5.777108  
     388A      5.818384   389A      5.819512   390A      5.873940  
     391A      5.905288   392A      5.929671   393A      5.953341  
     394A      6.017957   395A      6.052730   396A      6.077427  
     397A      6.097716   398A      6.112921   399A      6.113318  
     400A      6.171465   401A      6.179892   402A      6.198414  
     403A      6.229426   404A      6.260852   405A      6.267195  
     406A      6.362940   407A      6.374723   408A      6.420175  
     409A      6.447410   410A      6.521624   411A      6.545066  
     412A      6.552703   413A      6.599666   414A      6.600402  
     415A      6.655570   416A      6.680125   417A      6.695181  
     418A      6.734264   419A      6.825386   420A      6.840172  
     421A      6.897578   422A      6.909619   423A      7.040563  
     424A      7.048332   425A      7.244652   426A      7.332260  
     427A      7.410654   428A      7.456436   429A      7.543752  
     430A      7.591240   431A      7.596894   432A      7.650948  
     433A      7.664165   434A      7.672806   435A      7.731072  
     436A      7.735610   437A      7.802941   438A      7.959845  
     439A      8.166006   440A      8.296825   441A      8.434867  
     442A      8.563742   443A      8.986679   444A      9.306687  
     445A      9.366519   446A      9.470651   447A      9.487518  
     448A     10.166913   449A     10.726486   450A     11.225957  
     451A     11.608665   452A     11.750270   453A     12.085588  
     454A     12.848627   455A     17.203769   456A     17.384819  
     457A     18.875006   458A     51.459938   459A     59.309337  
     460A     62.391054  

    Final Occupation by Irrep:
              A 
    DOCC [    12 ]

  @DF-RHF Final Energy:  -149.14306255855047

   => Energetics <=

    Nuclear Repulsion Energy =             72.1807086195537693
    One-Electron Energy =                -344.7426429312167215
    Two-Electron Energy =                 123.4188717531125263
    Total Energy =                       -149.1430625585504686

Computation Completed


Properties will be evaluated at   0.000000,   0.000000,   0.000000 [a0]

Properties computed using the SCF density matrix

  Nuclear Dipole Moment: [e a0]
     X:    84.6674      Y:    -4.6771      Z:     0.0000

  Electronic Dipole Moment: [e a0]
     X:   -83.8450      Y:     5.6693      Z:    -0.0000

  Dipole Moment: [e a0]
     X:     0.8225      Y:     0.9922      Z:    -0.0000     Total:     1.2888

  Dipole Moment: [D]
     X:     2.0905      Y:     2.5220      Z:    -0.0000     Total:     3.2758


*** tstop() called on node54.bme.utexas.edu at Mon Sep  9 22:54:56 2019
Module time:
	user time   =      47.66 seconds =       0.79 minutes
	system time =       0.90 seconds =       0.01 minutes
	total time  =         13 seconds =       0.22 minutes
Total time:
	user time   =     132.85 seconds =       2.21 minutes
	system time =       2.39 seconds =       0.04 minutes
	total time  =         37 seconds =       0.62 minutes

  //>>>>>>>>>>>>>>>>>>>>>>>>>>>>>>>>>>>//
  //            Monomer B HF           //
  //<<<<<<<<<<<<<<<<<<<<<<<<<<<<<<<<<<<//


*** tstart() called on node54.bme.utexas.edu
*** at Mon Sep  9 22:54:56 2019

   => Loading Basis Set <=

    Name: AUG-CC-PVTZ
    Role: ORBITAL
    Keyword: BASIS
    atoms 1, 8                    entry C          line   235 file /home/xy3866/psi4conda/share/psi4/basis/aug-cc-pvtz.gbs 
    atoms 2, 4, 6-7, 9, 11, 13-14 entry H          line    36 file /home/xy3866/psi4conda/share/psi4/basis/aug-cc-pvtz.gbs 
    atoms 3, 5, 10, 12            entry N          line   281 file /home/xy3866/psi4conda/share/psi4/basis/aug-cc-pvtz.gbs 


         ---------------------------------------------------------
                                   SCF
               by Justin Turney, Rob Parrish, Andy Simmonett
                          and Daniel G. A. Smith
                              RHF Reference
                        4 Threads,  30517 MiB Core
         ---------------------------------------------------------

  ==> Geometry <==

    Molecular point group: c1
    Full point group: C1

    Geometry (in Angstrom), charge = 0, multiplicity = 1:

       Center              X                  Y                   Z               Mass       
    ------------   -----------------  -----------------  -----------------  -----------------
      Gh(C)           2.250211400000    -0.212138050000     0.000000886638    12.000000000000
      Gh(H)           3.341113400000    -0.216972050000    -0.000000113362     1.007825032230
      Gh(N)           1.540847400000    -1.289481050000    -0.000000113362    14.003074004430
      Gh(H)           2.159934400000    -2.091464050000    -0.000001113362     1.007825032230
      Gh(N)           1.713775400000     1.022245950000    -0.000000113362    14.003074004430
      Gh(H)           0.699180400000     1.159547950000    -0.000000113362     1.007825032230
      Gh(H)           2.320214400000     1.817354950000    -0.000001113362     1.007825032230
         C           -2.250211400000     0.212138050000    -0.000000113362    12.000000000000
         H           -3.341113400000     0.216972050000    -0.000000113362     1.007825032230
         N           -1.540847400000     1.289481050000    -0.000000113362    14.003074004430
         H           -2.159934400000     2.091464050000    -0.000000113362     1.007825032230
         N           -1.713775400000    -1.022245950000    -0.000000113362    14.003074004430
         H           -0.699180400000    -1.159547950000    -0.000000113362     1.007825032230
         H           -2.320214400000    -1.817354950000    -0.000000113362     1.007825032230

  Running in c1 symmetry.

  Rotational constants: A =      0.18002  B =      0.05342  C =      0.04120 [cm^-1]
  Rotational constants: A =   5396.77718  B =   1601.53477  C =   1235.03016 [MHz]
  Nuclear repulsion =   72.180708619570410

  Charge       = 0
  Multiplicity = 1
  Electrons    = 24
  Nalpha       = 12
  Nbeta        = 12

  ==> Algorithm <==

  SCF Algorithm Type is DF.
  DIIS enabled.
  MOM disabled.
  Fractional occupation disabled.
  Guess Type is SAD.
  Energy threshold   = 1.00e-08
  Density threshold  = 1.00e-08
  Integral threshold = 0.00e+00

  ==> Primary Basis <==

  Basis Set: AUG-CC-PVTZ
    Blend: AUG-CC-PVTZ
    Number of shells: 156
    Number of basis function: 460
    Number of Cartesian functions: 530
    Spherical Harmonics?: true
    Max angular momentum: 3

   => Loading Basis Set <=

    Name: (AUG-CC-PVTZ AUX)
    Role: JKFIT
    Keyword: DF_BASIS_SCF
    atoms 1, 8                    entry C          line   162 file /home/xy3866/psi4conda/share/psi4/basis/aug-cc-pvtz-jkfit.gbs 
    atoms 2, 4, 6-7, 9, 11, 13-14 entry H          line    70 file /home/xy3866/psi4conda/share/psi4/basis/aug-cc-pvtz-jkfit.gbs 
    atoms 3, 5, 10, 12            entry N          line   224 file /home/xy3866/psi4conda/share/psi4/basis/aug-cc-pvtz-jkfit.gbs 

  ==> Pre-Iterations <==

   -------------------------------------------------------
    Irrep   Nso     Nmo     Nalpha   Nbeta   Ndocc  Nsocc
   -------------------------------------------------------
     A        460     460       0       0       0       0
   -------------------------------------------------------
    Total     460     460      12      12      12       0
   -------------------------------------------------------

  ==> Integral Setup <==

  ==> DiskDFJK: Density-Fitted J/K Matrices <==

    J tasked:                  Yes
    K tasked:                  Yes
    wK tasked:                  No
    OpenMP threads:              4
    Integrals threads:           4
    Memory [MiB]:            22888
    Algorithm:                Core
    Integral Cache:           LOAD
    Schwarz Cutoff:          1E-12
    Fitting Condition:       1E-10

   => Auxiliary Basis Set <=

  Basis Set: (AUG-CC-PVTZ AUX)
    Blend: AUG-CC-PVTZ-JKFIT
    Number of shells: 292
    Number of basis function: 992
    Number of Cartesian functions: 1226
    Spherical Harmonics?: true
    Max angular momentum: 4

  Minimum eigenvalue in the overlap matrix is 2.1414349691E-05.
  Using Symmetric Orthogonalization.

  SCF Guess: Superposition of Atomic Densities via on-the-fly atomic UHF.

  ==> Iterations <==

                           Total Energy        Delta E     RMS |[F,P]|

   @DF-RHF iter SAD:  -148.38772515946047   -1.48388e+02   0.00000e+00 
   @DF-RHF iter   1:  -148.99742290039495   -6.09698e-01   1.19321e-03 DIIS
   @DF-RHF iter   2:  -149.09941788444863   -1.01995e-01   7.03987e-04 DIIS
   @DF-RHF iter   3:  -149.14133549389322   -4.19176e-02   9.82740e-05 DIIS
   @DF-RHF iter   4:  -149.14275061057731   -1.41512e-03   4.86432e-05 DIIS
   @DF-RHF iter   5:  -149.14302817339191   -2.77563e-04   8.87989e-06 DIIS
   @DF-RHF iter   6:  -149.14305681808781   -2.86447e-05   4.19431e-06 DIIS
   @DF-RHF iter   7:  -149.14306152325912   -4.70517e-06   1.68819e-06 DIIS
   @DF-RHF iter   8:  -149.14306246487408   -9.41615e-07   4.98490e-07 DIIS
   @DF-RHF iter   9:  -149.14306255065935   -8.57853e-08   1.52261e-07 DIIS
   @DF-RHF iter  10:  -149.14306255822927   -7.56992e-09   3.78155e-08 DIIS
   @DF-RHF iter  11:  -149.14306255870329   -4.74017e-10   7.22373e-09 DIIS
  Energy and wave function converged.


  ==> Post-Iterations <==

    Orbital Energies [Eh]
    ---------------------

    Doubly Occupied:                                                      

       1A    -15.581662     2A    -15.519541     3A    -11.314766  
       4A     -1.259005     5A     -1.137053     6A     -0.829943  
       7A     -0.745817     8A     -0.639654     9A     -0.615827  
      10A     -0.530070    11A     -0.419647    12A     -0.359462  

    Virtual:                                                              

      13A      0.021258    14A      0.030060    15A      0.036597  
      16A      0.049341    17A      0.050995    18A      0.069840  
      19A      0.074721    20A      0.075022    21A      0.086320  
      22A      0.086487    23A      0.096494    24A      0.112244  
      25A      0.126350    26A      0.126750    27A      0.130026  
      28A      0.134416    29A      0.137914    30A      0.139866  
      31A      0.148096    32A      0.159567    33A      0.162697  
      34A      0.166298    35A      0.186554    36A      0.189535  
      37A      0.194852    38A      0.210159    39A      0.220039  
      40A      0.221077    41A      0.225752    42A      0.238469  
      43A      0.247952    44A      0.251514    45A      0.270767  
      46A      0.286351    47A      0.293945    48A      0.294671  
      49A      0.302666    50A      0.303382    51A      0.311745  
      52A      0.312655    53A      0.331365    54A      0.340445  
      55A      0.344523    56A      0.355866    57A      0.360542  
      58A      0.363659    59A      0.366935    60A      0.370431  
      61A      0.371698    62A      0.376706    63A      0.383539  
      64A      0.388313    65A      0.393106    66A      0.397041  
      67A      0.409178    68A      0.415703    69A      0.429427  
      70A      0.431126    71A      0.435994    72A      0.447877  
      73A      0.453855    74A      0.454736    75A      0.469085  
      76A      0.474763    77A      0.491499    78A      0.498389  
      79A      0.501804    80A      0.510721    81A      0.528250  
      82A      0.530211    83A      0.543497    84A      0.551462  
      85A      0.570526    86A      0.582455    87A      0.584938  
      88A      0.609029    89A      0.612423    90A      0.618046  
      91A      0.622556    92A      0.629281    93A      0.641021  
      94A      0.650560    95A      0.675049    96A      0.683158  
      97A      0.691221    98A      0.698541    99A      0.706001  
     100A      0.727997   101A      0.736750   102A      0.748427  
     103A      0.751634   104A      0.768979   105A      0.775014  
     106A      0.775822   107A      0.784452   108A      0.792069  
     109A      0.804157   110A      0.809717   111A      0.810489  
     112A      0.823513   113A      0.829717   114A      0.833300  
     115A      0.851370   116A      0.859503   117A      0.870797  
     118A      0.884251   119A      0.894741   120A      0.900723  
     121A      0.910722   122A      0.921420   123A      0.923553  
     124A      0.933571   125A      0.943374   126A      0.944167  
     127A      0.956938   128A      0.973615   129A      0.977146  
     130A      0.984393   131A      0.988715   132A      0.996174  
     133A      1.000980   134A      1.015748   135A      1.016201  
     136A      1.031145   137A      1.050546   138A      1.057088  
     139A      1.068055   140A      1.069146   141A      1.076849  
     142A      1.080798   143A      1.094068   144A      1.103809  
     145A      1.106377   146A      1.110270   147A      1.113513  
     148A      1.123859   149A      1.145221   150A      1.149773  
     151A      1.181128   152A      1.182923   153A      1.199994  
     154A      1.208092   155A      1.220407   156A      1.228659  
     157A      1.245121   158A      1.246728   159A      1.252790  
     160A      1.263550   161A      1.270284   162A      1.289483  
     163A      1.291233   164A      1.303458   165A      1.319077  
     166A      1.324851   167A      1.347711   168A      1.361026  
     169A      1.367124   170A      1.370450   171A      1.376888  
     172A      1.397728   173A      1.402842   174A      1.434850  
     175A      1.453363   176A      1.453707   177A      1.468568  
     178A      1.473821   179A      1.476745   180A      1.483436  
     181A      1.486735   182A      1.498012   183A      1.516240  
     184A      1.518625   185A      1.533338   186A      1.558618  
     187A      1.564630   188A      1.580520   189A      1.583262  
     190A      1.584027   191A      1.611039   192A      1.625192  
     193A      1.636196   194A      1.643904   195A      1.661942  
     196A      1.666599   197A      1.677245   198A      1.686986  
     199A      1.696576   200A      1.716951   201A      1.733238  
     202A      1.737003   203A      1.743911   204A      1.757184  
     205A      1.770195   206A      1.775757   207A      1.780408  
     208A      1.791035   209A      1.802209   210A      1.806859  
     211A      1.839810   212A      1.868783   213A      1.878403  
     214A      1.905142   215A      1.908862   216A      1.919037  
     217A      1.931187   218A      1.943785   219A      1.963792  
     220A      1.990181   221A      2.013310   222A      2.027527  
     223A      2.059278   224A      2.071151   225A      2.084704  
     226A      2.102470   227A      2.116762   228A      2.122659  
     229A      2.145527   230A      2.149702   231A      2.165654  
     232A      2.207920   233A      2.216237   234A      2.223562  
     235A      2.245045   236A      2.268014   237A      2.292926  
     238A      2.306388   239A      2.316088   240A      2.322815  
     241A      2.336386   242A      2.354990   243A      2.372299  
     244A      2.381794   245A      2.402894   246A      2.430814  
     247A      2.436193   248A      2.449668   249A      2.454084  
     250A      2.487930   251A      2.515860   252A      2.537344  
     253A      2.547459   254A      2.558874   255A      2.573994  
     256A      2.600222   257A      2.613999   258A      2.614955  
     259A      2.663523   260A      2.666895   261A      2.678633  
     262A      2.686272   263A      2.727619   264A      2.728510  
     265A      2.777463   266A      2.814703   267A      2.836603  
     268A      2.842147   269A      2.857696   270A      2.872976  
     271A      2.922957   272A      2.952699   273A      2.961583  
     274A      2.993956   275A      3.044634   276A      3.060015  
     277A      3.115490   278A      3.130901   279A      3.143139  
     280A      3.164854   281A      3.189981   282A      3.227527  
     283A      3.243614   284A      3.297614   285A      3.365344  
     286A      3.393231   287A      3.406329   288A      3.482053  
     289A      3.494809   290A      3.526180   291A      3.596696  
     292A      3.598634   293A      3.667670   294A      3.689575  
     295A      3.759939   296A      3.785961   297A      3.815485  
     298A      3.826740   299A      3.848367   300A      3.877776  
     301A      3.928503   302A      3.972957   303A      3.992582  
     304A      4.062652   305A      4.070357   306A      4.072736  
     307A      4.102733   308A      4.108218   309A      4.116382  
     310A      4.169785   311A      4.193060   312A      4.198034  
     313A      4.214752   314A      4.254641   315A      4.298151  
     316A      4.314423   317A      4.361562   318A      4.369688  
     319A      4.410336   320A      4.424984   321A      4.441497  
     322A      4.444491   323A      4.448337   324A      4.471658  
     325A      4.529331   326A      4.533909   327A      4.567721  
     328A      4.586434   329A      4.597798   330A      4.639904  
     331A      4.653600   332A      4.660438   333A      4.684945  
     334A      4.686761   335A      4.724543   336A      4.741904  
     337A      4.748954   338A      4.774813   339A      4.794397  
     340A      4.847573   341A      4.854914   342A      4.859656  
     343A      4.868737   344A      4.884188   345A      4.886609  
     346A      4.902592   347A      4.917191   348A      4.925031  
     349A      4.965162   350A      4.975022   351A      4.979245  
     352A      4.984645   353A      5.024241   354A      5.026363  
     355A      5.055554   356A      5.071929   357A      5.077896  
     358A      5.164596   359A      5.168575   360A      5.200447  
     361A      5.205767   362A      5.209121   363A      5.242657  
     364A      5.269562   365A      5.293183   366A      5.320652  
     367A      5.327401   368A      5.328670   369A      5.353931  
     370A      5.378149   371A      5.405090   372A      5.430381  
     373A      5.450995   374A      5.452591   375A      5.488129  
     376A      5.492857   377A      5.505142   378A      5.521315  
     379A      5.569463   380A      5.589165   381A      5.640545  
     382A      5.684913   383A      5.701410   384A      5.726771  
     385A      5.748864   386A      5.765835   387A      5.777108  
     388A      5.818384   389A      5.819512   390A      5.873940  
     391A      5.905288   392A      5.929671   393A      5.953341  
     394A      6.017957   395A      6.052730   396A      6.077427  
     397A      6.097716   398A      6.112921   399A      6.113318  
     400A      6.171465   401A      6.179892   402A      6.198414  
     403A      6.229426   404A      6.260852   405A      6.267195  
     406A      6.362940   407A      6.374723   408A      6.420175  
     409A      6.447410   410A      6.521624   411A      6.545066  
     412A      6.552703   413A      6.599666   414A      6.600402  
     415A      6.655570   416A      6.680125   417A      6.695181  
     418A      6.734264   419A      6.825386   420A      6.840172  
     421A      6.897578   422A      6.909619   423A      7.040563  
     424A      7.048332   425A      7.244652   426A      7.332260  
     427A      7.410654   428A      7.456436   429A      7.543752  
     430A      7.591240   431A      7.596894   432A      7.650948  
     433A      7.664165   434A      7.672806   435A      7.731072  
     436A      7.735610   437A      7.802941   438A      7.959845  
     439A      8.166006   440A      8.296825   441A      8.434867  
     442A      8.563742   443A      8.986679   444A      9.306687  
     445A      9.366519   446A      9.470651   447A      9.487518  
     448A     10.166913   449A     10.726486   450A     11.225957  
     451A     11.608665   452A     11.750270   453A     12.085588  
     454A     12.848627   455A     17.203769   456A     17.384819  
     457A     18.875006   458A     51.459938   459A     59.309337  
     460A     62.391054  

    Final Occupation by Irrep:
              A 
    DOCC [    12 ]

  @DF-RHF Final Energy:  -149.14306255870329

   => Energetics <=

    Nuclear Repulsion Energy =             72.1807086195704102
    One-Electron Energy =                -344.7426429313320000
    Two-Electron Energy =                 123.4188717530583261
    Total Energy =                       -149.1430625587032637

Computation Completed


Properties will be evaluated at   0.000000,   0.000000,   0.000000 [a0]

Properties computed using the SCF density matrix

  Nuclear Dipole Moment: [e a0]
     X:   -84.6674      Y:     4.6771      Z:    -0.0000

  Electronic Dipole Moment: [e a0]
     X:    83.8450      Y:    -5.6693      Z:     0.0000

  Dipole Moment: [e a0]
     X:    -0.8225      Y:    -0.9922      Z:     0.0000     Total:     1.2888

  Dipole Moment: [D]
     X:    -2.0905      Y:    -2.5220      Z:     0.0000     Total:     3.2758


*** tstop() called on node54.bme.utexas.edu at Mon Sep  9 22:55:09 2019
Module time:
	user time   =      47.83 seconds =       0.80 minutes
	system time =       0.80 seconds =       0.01 minutes
	total time  =         13 seconds =       0.22 minutes
Total time:
	user time   =     180.70 seconds =       3.01 minutes
	system time =       3.19 seconds =       0.05 minutes
	total time  =         50 seconds =       0.83 minutes
  Constructing Basis Sets for SAPT...

   => Loading Basis Set <=

    Name: (AUG-CC-PVTZ AUX)
    Role: RIFIT
    Keyword: DF_BASIS_SAPT
    atoms 1, 8                    entry C          line   148 file /home/xy3866/psi4conda/share/psi4/basis/aug-cc-pvtz-ri.gbs 
    atoms 2, 4, 6-7, 9, 11, 13-14 entry H          line    30 file /home/xy3866/psi4conda/share/psi4/basis/aug-cc-pvtz-ri.gbs 
    atoms 3, 5, 10, 12            entry N          line   206 file /home/xy3866/psi4conda/share/psi4/basis/aug-cc-pvtz-ri.gbs 


  //>>>>>>>>>>>>>>>>>>>>>>>>>>>>>>>>>>>//
  //               SAPT2+              //
  //<<<<<<<<<<<<<<<<<<<<<<<<<<<<<<<<<<<//


*** tstart() called on node54.bme.utexas.edu
*** at Mon Sep  9 22:55:09 2019

        SAPT2+  
    Ed Hohenstein
     6 June 2009

      Orbital Information
  --------------------------
    NSO        =       460
    NMO        =       460
    NRI        =      1004
    NOCC A     =        12
    NOCC B     =        12
    FOCC A     =         3
    FOCC B     =         3
    NVIR A     =       448
    NVIR B     =       448

    Estimated memory usage: 2305.7 MB

    Natural Orbital Cutoff:   1.000E-06
    Disp(T3) Truncation:            Yes
    CCD (vv|vv) Truncation:         Yes
    MBPT T2 Truncation:             Yes

    Monomer A: 249 virtual orbitals dropped
    Monomer B: 249 virtual orbitals dropped

    Elst10,r            =    -0.025387490403 [Eh]
    Exch10 (S^2)        =     0.016007366586 [Eh]
    Exch10              =     0.016116807050 [Eh]
    Ind20,r (A<-B)      =    -0.004542614851 [Eh]
    Ind20,r (B<-A)      =    -0.004542614851 [Eh]
    Ind20,r             =    -0.009085229701 [Eh]
    Exch-Ind20,r (A<-B) =     0.002056106286 [Eh]
    Exch-Ind20,r (B<-A) =     0.002056106285 [Eh]
    Exch-Ind20,r        =     0.004112212571 [Eh]
    Disp20              =    -0.008517363926 [Eh]
    Disp20 (NO)         =    -0.007443225391 [Eh]
    Exch-Disp20         =     0.001377752878 [Eh]
    Elst12,r            =     0.000291667275 [Eh]
    Exch11              =     0.000140119088 [Eh]
    Exch12              =     0.002176922877 [Eh]
    Ind22               =    -0.000981806391 [Eh]
    Disp21              =     0.000477532883 [Eh]
    Disp22 (SDQ)        =     0.000103891435 [Eh]

    (i =   1 of   9)         32 seconds
    (i =   2 of   9)         64 seconds
    (i =   3 of   9)         97 seconds
    (i =   4 of   9)        129 seconds
    (i =   5 of   9)        161 seconds
    (i =   6 of   9)        193 seconds
    (i =   7 of   9)        226 seconds
    (i =   8 of   9)        258 seconds
    (i =   9 of   9)        290 seconds

    Disp220 (T)         =    -0.000699298712 [Eh]

    (i =   1 of   9)         32 seconds
    (i =   2 of   9)         64 seconds
    (i =   3 of   9)         97 seconds
    (i =   4 of   9)        129 seconds
    (i =   5 of   9)        162 seconds
    (i =   6 of   9)        194 seconds
    (i =   7 of   9)        226 seconds
    (i =   8 of   9)        259 seconds
    (i =   9 of   9)        291 seconds

    Disp202 (T)         =    -0.000699298712 [Eh]

    Disp22 (T)          =    -0.001398597424 [Eh]

    Est. Disp220 (T)    =    -0.000800215136 [Eh]
    Est. Disp202 (T)    =    -0.000800215136 [Eh]

    Est. Disp22 (T)     =    -0.001600430273 [Eh]

    SAPT Results 
  --------------------------------------------------------------------------------------------------------
    Electrostatics                -25.09582313 [mEh]     -15.74786676 [kcal/mol]     -65.88907454 [kJ/mol]
      Elst10,r                    -25.38749040 [mEh]     -15.93089074 [kcal/mol]     -66.65484687 [kJ/mol]
      Elst12,r                      0.29166727 [mEh]       0.18302398 [kcal/mol]       0.76577232 [kJ/mol]

    Exchange                       18.43384902 [mEh]      11.56741490 [kcal/mol]      48.39806392 [kJ/mol]
      Exch10                       16.11680705 [mEh]      10.11344911 [kcal/mol]      42.31467108 [kJ/mol]
      Exch10(S^2)                  16.00736659 [mEh]      10.04477418 [kcal/mol]      42.02733518 [kJ/mol]
      Exch11(S^2)                   0.14011909 [mEh]       0.08792606 [kcal/mol]       0.36788261 [kJ/mol]
      Exch12(S^2)                   2.17692288 [mEh]       1.36603973 [kcal/mol]       5.71551023 [kJ/mol]

    Induction                      -8.37341694 [mEh]      -5.25439846 [kcal/mol]     -21.98440314 [kJ/mol]
      Ind20,r                      -9.08522970 [mEh]      -5.70106771 [kcal/mol]     -23.85326729 [kJ/mol]
      Ind22                        -0.98180639 [mEh]      -0.61609281 [kcal/mol]      -2.57773232 [kJ/mol]
      Exch-Ind20,r                  4.11221257 [mEh]       2.58045235 [kcal/mol]      10.79661262 [kJ/mol]
      Exch-Ind22                    0.44439125 [mEh]       0.27885972 [kcal/mol]       1.16674907 [kJ/mol]
      delta HF,r (2)               -2.86298467 [mEh]      -1.79655000 [kcal/mol]      -7.51676521 [kJ/mol]

    Dispersion                     -8.15861700 [mEh]      -5.11960946 [kcal/mol]     -21.42044599 [kJ/mol]
      Disp20                       -8.51736393 [mEh]      -5.34472655 [kcal/mol]     -22.36233591 [kJ/mol]
      Disp21                        0.47753288 [mEh]       0.29965641 [kcal/mol]       1.25376241 [kJ/mol]
      Disp22 (SDQ)                  0.10389144 [mEh]       0.06519286 [kcal/mol]       0.27276693 [kJ/mol]
      Disp22 (T)                   -1.39859742 [mEh]      -0.87763313 [kcal/mol]      -3.67201703 [kJ/mol]
      Est. Disp22 (T)              -1.60043027 [mEh]      -1.00428516 [kcal/mol]      -4.20192910 [kJ/mol]
      Exch-Disp20                   1.37775288 [mEh]       0.86455298 [kcal/mol]       3.61728968 [kJ/mol]

  Total HF                        -17.10668515 [mEh]     -10.73460700 [kcal/mol]     -44.91359567 [kJ/mol]
  Total SAPT0                     -24.24629620 [mEh]     -15.21478057 [kcal/mol]     -63.65864190 [kJ/mol]
  Total SAPT2                     -22.17500210 [mEh]     -13.91502390 [kcal/mol]     -58.22045999 [kJ/mol]
  Total SAPT2+                    -23.19400805 [mEh]     -14.55445979 [kcal/mol]     -60.89585975 [kJ/mol]

  Special recipe for scaled SAPT0 (see Manual):
    Electrostatics sSAPT0         -25.38749040 [mEh]     -15.93089074 [kcal/mol]     -66.65484687 [kJ/mol]
    Exchange sSAPT0                16.11680705 [mEh]      10.11344911 [kcal/mol]      42.31467108 [kJ/mol]
    Induction sSAPT0               -7.75107971 [mEh]      -4.86387595 [kcal/mol]     -20.35045696 [kJ/mol]
    Dispersion sSAPT0              -7.11115881 [mEh]      -4.46231952 [kcal/mol]     -18.67034488 [kJ/mol]
  Total sSAPT0                    -24.13292187 [mEh]     -15.14363710 [kcal/mol]     -63.36097763 [kJ/mol]
  --------------------------------------------------------------------------------------------------------

*** tstop() called on node54.bme.utexas.edu at Mon Sep  9 23:10:04 2019
Module time:
	user time   =    3264.35 seconds =      54.41 minutes
	system time =      60.37 seconds =       1.01 minutes
	total time  =        895 seconds =      14.92 minutes
Total time:
	user time   =    3445.33 seconds =      57.42 minutes
	system time =      63.56 seconds =       1.06 minutes
	total time  =        945 seconds =      15.75 minutes

    Psi4 stopped on: Monday, 09 September 2019 11:10PM
    Psi4 wall time for execution: 0:15:44.71

*** Psi4 exiting successfully. Buy a developer a beer!
