
Host: node54.bme.utexas.edu

Timers On : Mon Sep  9 16:03:23 2019
Timers Off: Mon Sep  9 16:17:59 2019

Wall Time:      875.38 seconds

                                                       Time (seconds)
Module                                       User      System        Wall        Calls
JK: (A|mn)                          :     21.983u      0.000s      3.316w      1 calls
JK: (A|Q)^-1/2                      :      2.750u      0.067s      0.436w      1 calls
JK: (Q|mn)                          :     11.800u      0.017s      1.775w      1 calls
HF: Form core H                     :      0.033u      0.000s      0.100w      3 calls
HF: Form S/X                        :      1.117u      0.033s      0.174w      3 calls
HF: Guess                           :     13.717u      0.333s      2.108w      3 calls
SAD Guess                           :     13.467u      0.333s      2.072w      3 calls
HF: Form G                          :    170.983u      1.133s     25.863w     37 calls
JK: D                               :      0.050u      0.000s      0.010w     37 calls
JK: USO2AO                          :      0.033u      0.000s      0.010w     37 calls
JK: JK                              :    170.683u      1.133s     25.821w     37 calls
JK: J                               :     11.983u      0.083s      1.810w     37 calls
JK: J1                              :      5.850u      0.050s      0.889w     37 calls
JK: J2                              :      5.867u      0.033s      0.879w     37 calls
JK: K                               :    155.233u      0.067s     23.333w     37 calls
JK: K1                              :    138.317u      0.033s     20.796w     37 calls
JK: K2                              :     16.850u      0.033s      2.532w     37 calls
JK: AO2USO                          :      0.000u      0.000s      0.000w     37 calls
HF: Form F                          :      0.117u      0.000s      0.011w     37 calls
HF: Form D                          :      0.017u      0.017s      0.010w     37 calls
HF: DIIS                            :      3.750u      0.367s      0.628w     34 calls
DIISManager::add_entry              :      0.383u      0.150s      0.092w     34 calls
DIISManager::extrapolate            :      1.050u      0.217s      0.198w     34 calls
bMatrix setup                       :      0.483u      0.167s      0.101w     34 calls
bMatrix pseudoinverse               :      0.017u      0.000s      0.003w     34 calls
New vector                          :      0.550u      0.050s      0.094w     34 calls
HF: Form C                          :     12.850u      0.117s      1.943w     34 calls
DF Integrals                        :    306.500u     21.233s     55.333w      1 calls
Omega Integrals                     :      3.150u      1.933s      1.522w      1 calls
Amplitudes                          :    688.317u     15.300s    112.709w      1 calls
Elst10                              :      0.000u      0.000s      0.000w      1 calls
Exch10 S^2                          :      0.000u      0.000s      0.002w      1 calls
Exch10                              :      0.083u      0.000s      0.015w      1 calls
Ind20,r                             :     46.583u      1.117s      7.165w      1 calls
Exch-Ind20,r                        :      1.183u      0.217s      0.208w      1 calls
Disp20                              :      3.083u      0.150s      0.487w      1 calls
Exch-Disp20                         :     40.233u      0.667s      6.189w      1 calls
Elst12                              :      0.000u      0.000s      0.001w      1 calls
Exch11                              :      0.517u      0.100s      0.092w      1 calls
Exch12                              :    275.250u     10.083s     46.032w      1 calls
Ind22                               :     35.767u      6.650s      8.660w      1 calls
Disp21                              :      1.600u      0.383s      0.300w      1 calls
Disp22 (SDQ)                        :     72.283u      4.083s     12.242w      1 calls
Disp22 (T)                          :   3820.500u     22.300s    577.290w      1 calls

--------------------------------------------------------------------------------------
JK: (A|mn)                          :     21.983u      0.000s      3.316w      1 calls
JK: (A|Q)^-1/2                      :      2.750u      0.067s      0.436w      1 calls
JK: (Q|mn)                          :     11.800u      0.017s      1.775w      1 calls
HF: Form core H                     :      0.033u      0.000s      0.100w      3 calls
HF: Form S/X                        :      1.117u      0.033s      0.174w      3 calls
HF: Guess                           :     13.717u      0.333s      2.108w      3 calls
| SAD Guess                         :     13.467u      0.333s      2.072w      3 calls
HF: Form G                          :    170.983u      1.133s     25.863w     37 calls
| JK: D                             :      0.050u      0.000s      0.010w     37 calls
| JK: USO2AO                        :      0.033u      0.000s      0.010w     37 calls
| JK: JK                            :    170.683u      1.133s     25.821w     37 calls
| | JK: J                           :     11.983u      0.083s      1.810w     37 calls
| | | JK: J1                        :      5.850u      0.050s      0.889w     37 calls
| | | JK: J2                        :      5.867u      0.033s      0.879w     37 calls
| | JK: K                           :    155.233u      0.067s     23.333w     37 calls
| | | JK: K1                        :    138.317u      0.033s     20.796w     37 calls
| | | JK: K2                        :     16.850u      0.033s      2.532w     37 calls
| JK: AO2USO                        :      0.000u      0.000s      0.000w     37 calls
HF: Form F                          :      0.117u      0.000s      0.011w     37 calls
HF: Form D                          :      0.017u      0.017s      0.010w     37 calls
HF: DIIS                            :      3.750u      0.367s      0.628w     34 calls
| DIISManager::add_entry            :      0.383u      0.150s      0.092w     34 calls
| DIISManager::extrapolate          :      1.050u      0.217s      0.198w     34 calls
| | bMatrix setup                   :      0.483u      0.167s      0.101w     34 calls
| | bMatrix pseudoinverse           :      0.017u      0.000s      0.003w     34 calls
| | New vector                      :      0.550u      0.050s      0.094w     34 calls
HF: Form C                          :     12.850u      0.117s      1.943w     34 calls
DF Integrals                        :    306.500u     21.233s     55.333w      1 calls
Omega Integrals                     :      3.150u      1.933s      1.522w      1 calls
Amplitudes                          :    688.317u     15.300s    112.709w      1 calls
Elst10                              :      0.000u      0.000s      0.000w      1 calls
Exch10 S^2                          :      0.000u      0.000s      0.002w      1 calls
Exch10                              :      0.083u      0.000s      0.015w      1 calls
Ind20,r                             :     46.583u      1.117s      7.165w      1 calls
Exch-Ind20,r                        :      1.183u      0.217s      0.208w      1 calls
Disp20                              :      3.083u      0.150s      0.487w      1 calls
Exch-Disp20                         :     40.233u      0.667s      6.189w      1 calls
Elst12                              :      0.000u      0.000s      0.001w      1 calls
Exch11                              :      0.517u      0.100s      0.092w      1 calls
Exch12                              :    275.250u     10.083s     46.032w      1 calls
Ind22                               :     35.767u      6.650s      8.660w      1 calls
Disp21                              :      1.600u      0.383s      0.300w      1 calls
Disp22 (SDQ)                        :     72.283u      4.083s     12.242w      1 calls
Disp22 (T)                          :   3820.500u     22.300s    577.290w      1 calls

**************************************************************************************

Host: node54.bme.utexas.edu

Timers On : Mon Sep  9 16:18:30 2019
Timers Off: Mon Sep  9 16:32:09 2019

Wall Time:      818.95 seconds

                                                       Time (seconds)
Module                                       User      System        Wall        Calls
JK: (A|mn)                          :     21.500u      0.000s      3.229w      1 calls
JK: (A|Q)^-1/2                      :      2.700u      0.033s      0.411w      1 calls
JK: (Q|mn)                          :     11.900u      0.033s      1.791w      1 calls
HF: Form core H                     :      0.033u      0.000s      0.100w      3 calls
HF: Form S/X                        :      1.150u      0.033s      0.178w      3 calls
HF: Guess                           :     13.533u      0.383s      2.090w      3 calls
SAD Guess                           :     13.300u      0.350s      2.054w      3 calls
HF: Form G                          :    180.417u      1.100s     27.255w     38 calls
JK: D                               :      0.083u      0.000s      0.010w     38 calls
JK: USO2AO                          :      0.083u      0.017s      0.011w     38 calls
JK: JK                              :    179.900u      1.083s     27.212w     38 calls
JK: J                               :     12.133u      0.083s      1.845w     38 calls
JK: J1                              :      5.967u      0.050s      0.904w     38 calls
JK: J2                              :      5.967u      0.017s      0.896w     38 calls
JK: K                               :    164.167u      0.017s     24.669w     38 calls
JK: K1                              :    146.500u      0.017s     22.019w     38 calls
JK: K2                              :     17.533u      0.000s      2.644w     38 calls
JK: AO2USO                          :      0.000u      0.000s      0.000w     38 calls
HF: Form F                          :      0.017u      0.000s      0.011w     38 calls
HF: Form D                          :      0.033u      0.000s      0.011w     38 calls
HF: DIIS                            :      3.883u      0.383s      0.650w     35 calls
DIISManager::add_entry              :      0.400u      0.117s      0.090w     35 calls
DIISManager::extrapolate            :      1.050u      0.250s      0.210w     35 calls
bMatrix setup                       :      0.550u      0.150s      0.105w     35 calls
bMatrix pseudoinverse               :      0.017u      0.000s      0.003w     35 calls
New vector                          :      0.483u      0.100s      0.102w     35 calls
HF: Form C                          :     13.750u      0.150s      2.066w     35 calls
DF Integrals                        :    308.550u     21.700s     55.238w      1 calls
Omega Integrals                     :      3.117u      2.083s      1.591w      1 calls
Amplitudes                          :    634.050u     18.567s    103.197w      1 calls
Elst10                              :      0.000u      0.000s      0.000w      1 calls
Exch10 S^2                          :      0.017u      0.000s      0.002w      1 calls
Exch10                              :      0.033u      0.000s      0.004w      1 calls
Ind20,r                             :     46.650u      1.317s      7.204w      1 calls
Exch-Ind20,r                        :      1.200u      0.217s      0.211w      1 calls
Disp20                              :      3.083u      0.167s      0.489w      1 calls
Exch-Disp20                         :     40.783u      0.883s      6.288w      1 calls
Elst12                              :      0.000u      0.000s      0.001w      1 calls
Exch11                              :      0.567u      0.083s      0.096w      1 calls
Exch12                              :    273.583u     10.067s     45.919w      1 calls
Ind22                               :     35.400u      6.817s      8.756w      1 calls
Disp21                              :      1.633u      0.383s      0.303w      1 calls
Disp22 (SDQ)                        :     72.167u      4.100s     12.278w      1 calls
Disp22 (T)                          :   3473.483u     22.983s    526.729w      1 calls

--------------------------------------------------------------------------------------
JK: (A|mn)                          :     21.500u      0.000s      3.229w      1 calls
JK: (A|Q)^-1/2                      :      2.700u      0.033s      0.411w      1 calls
JK: (Q|mn)                          :     11.900u      0.033s      1.791w      1 calls
HF: Form core H                     :      0.033u      0.000s      0.100w      3 calls
HF: Form S/X                        :      1.150u      0.033s      0.178w      3 calls
HF: Guess                           :     13.533u      0.383s      2.090w      3 calls
| SAD Guess                         :     13.300u      0.350s      2.054w      3 calls
HF: Form G                          :    180.417u      1.100s     27.255w     38 calls
| JK: D                             :      0.083u      0.000s      0.010w     38 calls
| JK: USO2AO                        :      0.083u      0.017s      0.011w     38 calls
| JK: JK                            :    179.900u      1.083s     27.212w     38 calls
| | JK: J                           :     12.133u      0.083s      1.845w     38 calls
| | | JK: J1                        :      5.967u      0.050s      0.904w     38 calls
| | | JK: J2                        :      5.967u      0.017s      0.896w     38 calls
| | JK: K                           :    164.167u      0.017s     24.669w     38 calls
| | | JK: K1                        :    146.500u      0.017s     22.019w     38 calls
| | | JK: K2                        :     17.533u      0.000s      2.644w     38 calls
| JK: AO2USO                        :      0.000u      0.000s      0.000w     38 calls
HF: Form F                          :      0.017u      0.000s      0.011w     38 calls
HF: Form D                          :      0.033u      0.000s      0.011w     38 calls
HF: DIIS                            :      3.883u      0.383s      0.650w     35 calls
| DIISManager::add_entry            :      0.400u      0.117s      0.090w     35 calls
| DIISManager::extrapolate          :      1.050u      0.250s      0.210w     35 calls
| | bMatrix setup                   :      0.550u      0.150s      0.105w     35 calls
| | bMatrix pseudoinverse           :      0.017u      0.000s      0.003w     35 calls
| | New vector                      :      0.483u      0.100s      0.102w     35 calls
HF: Form C                          :     13.750u      0.150s      2.066w     35 calls
DF Integrals                        :    308.550u     21.700s     55.238w      1 calls
Omega Integrals                     :      3.117u      2.083s      1.591w      1 calls
Amplitudes                          :    634.050u     18.567s    103.197w      1 calls
Elst10                              :      0.000u      0.000s      0.000w      1 calls
Exch10 S^2                          :      0.017u      0.000s      0.002w      1 calls
Exch10                              :      0.033u      0.000s      0.004w      1 calls
Ind20,r                             :     46.650u      1.317s      7.204w      1 calls
Exch-Ind20,r                        :      1.200u      0.217s      0.211w      1 calls
Disp20                              :      3.083u      0.167s      0.489w      1 calls
Exch-Disp20                         :     40.783u      0.883s      6.288w      1 calls
Elst12                              :      0.000u      0.000s      0.001w      1 calls
Exch11                              :      0.567u      0.083s      0.096w      1 calls
Exch12                              :    273.583u     10.067s     45.919w      1 calls
Ind22                               :     35.400u      6.817s      8.756w      1 calls
Disp21                              :      1.633u      0.383s      0.303w      1 calls
Disp22 (SDQ)                        :     72.167u      4.100s     12.278w      1 calls
Disp22 (T)                          :   3473.483u     22.983s    526.729w      1 calls

**************************************************************************************

Host: node54.bme.utexas.edu

Timers On : Mon Sep  9 16:32:40 2019
Timers Off: Mon Sep  9 16:47:05 2019

Wall Time:      864.61 seconds

                                                       Time (seconds)
Module                                       User      System        Wall        Calls
JK: (A|mn)                          :     22.283u      0.000s      3.346w      1 calls
JK: (A|Q)^-1/2                      :      2.517u      0.067s      0.387w      1 calls
JK: (Q|mn)                          :     11.733u      0.033s      1.766w      1 calls
HF: Form core H                     :      0.017u      0.000s      0.082w      3 calls
HF: Form S/X                        :      1.117u      0.017s      0.173w      3 calls
HF: Guess                           :     14.100u      0.233s      2.152w      3 calls
SAD Guess                           :     13.850u      0.233s      2.114w      3 calls
HF: Form G                          :    180.883u      1.217s     27.340w     38 calls
JK: D                               :      0.183u      0.000s      0.011w     38 calls
JK: USO2AO                          :      0.100u      0.000s      0.012w     38 calls
JK: JK                              :    180.383u      1.217s     27.293w     38 calls
JK: J                               :     13.083u      0.033s      1.971w     38 calls
JK: J1                              :      6.333u      0.000s      0.959w     38 calls
JK: J2                              :      6.317u      0.033s      0.960w     38 calls
JK: K                               :    163.617u      0.150s     24.606w     38 calls
JK: K1                              :    145.600u      0.117s     21.898w     38 calls
JK: K2                              :     17.867u      0.017s      2.702w     38 calls
JK: AO2USO                          :      0.000u      0.000s      0.000w     38 calls
HF: Form F                          :      0.017u      0.000s      0.012w     38 calls
HF: Form D                          :      0.050u      0.017s      0.012w     38 calls
HF: DIIS                            :      4.067u      0.433s      0.677w     35 calls
DIISManager::add_entry              :      0.533u      0.117s      0.095w     35 calls
DIISManager::extrapolate            :      1.167u      0.300s      0.222w     35 calls
bMatrix setup                       :      0.583u      0.167s      0.110w     35 calls
bMatrix pseudoinverse               :      0.067u      0.000s      0.003w     35 calls
New vector                          :      0.517u      0.133s      0.109w     35 calls
HF: Form C                          :     13.633u      0.183s      2.071w     35 calls
DF Integrals                        :    316.350u     24.683s    103.760w      1 calls
Omega Integrals                     :      3.150u      1.967s      1.564w      1 calls
Amplitudes                          :    582.083u     15.367s     94.684w      1 calls
Elst10                              :      0.000u      0.000s      0.000w      1 calls
Exch10 S^2                          :      0.017u      0.000s      0.002w      1 calls
Exch10                              :      0.017u      0.000s      0.004w      1 calls
Ind20,r                             :     48.650u      1.433s      7.523w      1 calls
Exch-Ind20,r                        :      1.250u      0.217s      0.220w      1 calls
Disp20                              :      3.133u      0.150s      0.496w      1 calls
Exch-Disp20                         :     41.933u      0.683s      6.433w      1 calls
Elst12                              :      0.000u      0.000s      0.001w      1 calls
Exch11                              :      0.567u      0.083s      0.097w      1 calls
Exch12                              :    285.417u     10.033s     47.715w      1 calls
Ind22                               :     37.183u      6.750s      8.914w      1 calls
Disp21                              :      1.683u      0.433s      0.316w      1 calls
Disp22 (SDQ)                        :     74.767u      4.167s     12.658w      1 calls
Disp22 (T)                          :   3517.050u     30.133s    533.069w      1 calls

--------------------------------------------------------------------------------------
JK: (A|mn)                          :     22.283u      0.000s      3.346w      1 calls
JK: (A|Q)^-1/2                      :      2.517u      0.067s      0.387w      1 calls
JK: (Q|mn)                          :     11.733u      0.033s      1.766w      1 calls
HF: Form core H                     :      0.017u      0.000s      0.082w      3 calls
HF: Form S/X                        :      1.117u      0.017s      0.173w      3 calls
HF: Guess                           :     14.100u      0.233s      2.152w      3 calls
| SAD Guess                         :     13.850u      0.233s      2.114w      3 calls
HF: Form G                          :    180.883u      1.217s     27.340w     38 calls
| JK: D                             :      0.183u      0.000s      0.011w     38 calls
| JK: USO2AO                        :      0.100u      0.000s      0.012w     38 calls
| JK: JK                            :    180.383u      1.217s     27.293w     38 calls
| | JK: J                           :     13.083u      0.033s      1.971w     38 calls
| | | JK: J1                        :      6.333u      0.000s      0.959w     38 calls
| | | JK: J2                        :      6.317u      0.033s      0.960w     38 calls
| | JK: K                           :    163.617u      0.150s     24.606w     38 calls
| | | JK: K1                        :    145.600u      0.117s     21.898w     38 calls
| | | JK: K2                        :     17.867u      0.017s      2.702w     38 calls
| JK: AO2USO                        :      0.000u      0.000s      0.000w     38 calls
HF: Form F                          :      0.017u      0.000s      0.012w     38 calls
HF: Form D                          :      0.050u      0.017s      0.012w     38 calls
HF: DIIS                            :      4.067u      0.433s      0.677w     35 calls
| DIISManager::add_entry            :      0.533u      0.117s      0.095w     35 calls
| DIISManager::extrapolate          :      1.167u      0.300s      0.222w     35 calls
| | bMatrix setup                   :      0.583u      0.167s      0.110w     35 calls
| | bMatrix pseudoinverse           :      0.067u      0.000s      0.003w     35 calls
| | New vector                      :      0.517u      0.133s      0.109w     35 calls
HF: Form C                          :     13.633u      0.183s      2.071w     35 calls
DF Integrals                        :    316.350u     24.683s    103.760w      1 calls
Omega Integrals                     :      3.150u      1.967s      1.564w      1 calls
Amplitudes                          :    582.083u     15.367s     94.684w      1 calls
Elst10                              :      0.000u      0.000s      0.000w      1 calls
Exch10 S^2                          :      0.017u      0.000s      0.002w      1 calls
Exch10                              :      0.017u      0.000s      0.004w      1 calls
Ind20,r                             :     48.650u      1.433s      7.523w      1 calls
Exch-Ind20,r                        :      1.250u      0.217s      0.220w      1 calls
Disp20                              :      3.133u      0.150s      0.496w      1 calls
Exch-Disp20                         :     41.933u      0.683s      6.433w      1 calls
Elst12                              :      0.000u      0.000s      0.001w      1 calls
Exch11                              :      0.567u      0.083s      0.097w      1 calls
Exch12                              :    285.417u     10.033s     47.715w      1 calls
Ind22                               :     37.183u      6.750s      8.914w      1 calls
Disp21                              :      1.683u      0.433s      0.316w      1 calls
Disp22 (SDQ)                        :     74.767u      4.167s     12.658w      1 calls
Disp22 (T)                          :   3517.050u     30.133s    533.069w      1 calls

**************************************************************************************

Host: node54.bme.utexas.edu

Timers On : Mon Sep  9 16:47:36 2019
Timers Off: Mon Sep  9 17:00:54 2019

Wall Time:      798.11 seconds

                                                       Time (seconds)
Module                                       User      System        Wall        Calls
JK: (A|mn)                          :     22.250u      0.000s      3.342w      1 calls
JK: (A|Q)^-1/2                      :      2.467u      0.033s      0.377w      1 calls
JK: (Q|mn)                          :     11.833u      0.017s      1.781w      1 calls
HF: Form core H                     :      0.017u      0.017s      0.087w      3 calls
HF: Form S/X                        :      1.100u      0.033s      0.170w      3 calls
HF: Guess                           :     14.117u      0.400s      2.180w      3 calls
SAD Guess                           :     13.867u      0.400s      2.141w      3 calls
HF: Form G                          :    171.817u      1.133s     25.988w     37 calls
JK: D                               :      0.150u      0.000s      0.011w     37 calls
JK: USO2AO                          :      0.067u      0.000s      0.012w     37 calls
JK: JK                              :    171.417u      1.133s     25.940w     37 calls
JK: J                               :     11.267u      0.083s      1.688w     37 calls
JK: J1                              :      5.533u      0.033s      0.828w     37 calls
JK: J2                              :      5.250u      0.050s      0.804w     37 calls
JK: K                               :    156.733u      0.017s     23.560w     37 calls
JK: K1                              :    139.667u      0.000s     21.011w     37 calls
JK: K2                              :     16.933u      0.017s      2.543w     37 calls
JK: AO2USO                          :      0.000u      0.000s      0.000w     37 calls
HF: Form F                          :      0.067u      0.000s      0.013w     37 calls
HF: Form D                          :      0.083u      0.000s      0.011w     37 calls
HF: DIIS                            :      3.883u      0.417s      0.655w     34 calls
DIISManager::add_entry              :      0.450u      0.083s      0.091w     34 calls
DIISManager::extrapolate            :      1.183u      0.333s      0.221w     34 calls
bMatrix setup                       :      0.617u      0.267s      0.114w     34 calls
bMatrix pseudoinverse               :      0.000u      0.000s      0.003w     34 calls
New vector                          :      0.567u      0.067s      0.105w     34 calls
HF: Form C                          :     13.017u      0.167s      1.987w     34 calls
DF Integrals                        :    319.067u     20.983s     57.535w      1 calls
Omega Integrals                     :      3.183u      1.883s      1.531w      1 calls
Amplitudes                          :    574.217u     16.083s     93.630w      1 calls
Elst10                              :      0.000u      0.000s      0.000w      1 calls
Exch10 S^2                          :      0.000u      0.000s      0.002w      1 calls
Exch10                              :      0.033u      0.000s      0.004w      1 calls
Ind20,r                             :     48.633u      1.283s      7.498w      1 calls
Exch-Ind20,r                        :      1.200u      0.217s      0.213w      1 calls
Disp20                              :      3.100u      0.167s      0.492w      1 calls
Exch-Disp20                         :     41.950u      0.717s      6.458w      1 calls
Elst12                              :      0.000u      0.017s      0.001w      1 calls
Exch11                              :      0.567u      0.083s      0.097w      1 calls
Exch12                              :    281.550u     10.267s     47.072w      1 calls
Ind22                               :     36.217u      6.450s      8.626w      1 calls
Disp21                              :      1.683u      0.417s      0.317w      1 calls
Disp22 (SDQ)                        :     73.983u      4.050s     12.455w      1 calls
Disp22 (T)                          :   3398.933u     35.783s    516.150w      1 calls

--------------------------------------------------------------------------------------
JK: (A|mn)                          :     22.250u      0.000s      3.342w      1 calls
JK: (A|Q)^-1/2                      :      2.467u      0.033s      0.377w      1 calls
JK: (Q|mn)                          :     11.833u      0.017s      1.781w      1 calls
HF: Form core H                     :      0.017u      0.017s      0.087w      3 calls
HF: Form S/X                        :      1.100u      0.033s      0.170w      3 calls
HF: Guess                           :     14.117u      0.400s      2.180w      3 calls
| SAD Guess                         :     13.867u      0.400s      2.141w      3 calls
HF: Form G                          :    171.817u      1.133s     25.988w     37 calls
| JK: D                             :      0.150u      0.000s      0.011w     37 calls
| JK: USO2AO                        :      0.067u      0.000s      0.012w     37 calls
| JK: JK                            :    171.417u      1.133s     25.940w     37 calls
| | JK: J                           :     11.267u      0.083s      1.688w     37 calls
| | | JK: J1                        :      5.533u      0.033s      0.828w     37 calls
| | | JK: J2                        :      5.250u      0.050s      0.804w     37 calls
| | JK: K                           :    156.733u      0.017s     23.560w     37 calls
| | | JK: K1                        :    139.667u      0.000s     21.011w     37 calls
| | | JK: K2                        :     16.933u      0.017s      2.543w     37 calls
| JK: AO2USO                        :      0.000u      0.000s      0.000w     37 calls
HF: Form F                          :      0.067u      0.000s      0.013w     37 calls
HF: Form D                          :      0.083u      0.000s      0.011w     37 calls
HF: DIIS                            :      3.883u      0.417s      0.655w     34 calls
| DIISManager::add_entry            :      0.450u      0.083s      0.091w     34 calls
| DIISManager::extrapolate          :      1.183u      0.333s      0.221w     34 calls
| | bMatrix setup                   :      0.617u      0.267s      0.114w     34 calls
| | bMatrix pseudoinverse           :      0.000u      0.000s      0.003w     34 calls
| | New vector                      :      0.567u      0.067s      0.105w     34 calls
HF: Form C                          :     13.017u      0.167s      1.987w     34 calls
DF Integrals                        :    319.067u     20.983s     57.535w      1 calls
Omega Integrals                     :      3.183u      1.883s      1.531w      1 calls
Amplitudes                          :    574.217u     16.083s     93.630w      1 calls
Elst10                              :      0.000u      0.000s      0.000w      1 calls
Exch10 S^2                          :      0.000u      0.000s      0.002w      1 calls
Exch10                              :      0.033u      0.000s      0.004w      1 calls
Ind20,r                             :     48.633u      1.283s      7.498w      1 calls
Exch-Ind20,r                        :      1.200u      0.217s      0.213w      1 calls
Disp20                              :      3.100u      0.167s      0.492w      1 calls
Exch-Disp20                         :     41.950u      0.717s      6.458w      1 calls
Elst12                              :      0.000u      0.017s      0.001w      1 calls
Exch11                              :      0.567u      0.083s      0.097w      1 calls
Exch12                              :    281.550u     10.267s     47.072w      1 calls
Ind22                               :     36.217u      6.450s      8.626w      1 calls
Disp21                              :      1.683u      0.417s      0.317w      1 calls
Disp22 (SDQ)                        :     73.983u      4.050s     12.455w      1 calls
Disp22 (T)                          :   3398.933u     35.783s    516.150w      1 calls

**************************************************************************************

Host: node54.bme.utexas.edu

Timers On : Mon Sep  9 17:01:25 2019
Timers Off: Mon Sep  9 17:14:35 2019

Wall Time:      789.68 seconds

                                                       Time (seconds)
Module                                       User      System        Wall        Calls
JK: (A|mn)                          :     22.100u      0.000s      3.320w      1 calls
JK: (A|Q)^-1/2                      :      2.667u      0.067s      0.410w      1 calls
JK: (Q|mn)                          :     11.817u      0.033s      1.779w      1 calls
HF: Form core H                     :      0.017u      0.033s      0.037w      3 calls
HF: Form S/X                        :      1.100u      0.017s      0.172w      3 calls
HF: Guess                           :     13.733u      0.450s      2.128w      3 calls
SAD Guess                           :     13.483u      0.450s      2.091w      3 calls
HF: Form G                          :    179.267u      1.233s     27.143w     37 calls
JK: D                               :      0.067u      0.000s      0.010w     37 calls
JK: USO2AO                          :      0.083u      0.000s      0.011w     37 calls
JK: JK                              :    178.917u      1.233s     27.100w     37 calls
JK: J                               :     12.667u      0.067s      1.912w     37 calls
JK: J1                              :      6.133u      0.033s      0.932w     37 calls
JK: J2                              :      6.183u      0.017s      0.936w     37 calls
JK: K                               :    162.683u      0.217s     24.491w     37 calls
JK: K1                              :    145.500u      0.183s     21.909w     37 calls
JK: K2                              :     17.067u      0.033s      2.575w     37 calls
JK: AO2USO                          :      0.000u      0.000s      0.000w     37 calls
HF: Form F                          :      0.100u      0.000s      0.011w     37 calls
HF: Form D                          :      0.050u      0.000s      0.011w     37 calls
HF: DIIS                            :      3.850u      0.383s      0.648w     34 calls
DIISManager::add_entry              :      0.467u      0.117s      0.088w     34 calls
DIISManager::extrapolate            :      1.133u      0.217s      0.213w     34 calls
bMatrix setup                       :      0.517u      0.167s      0.109w     34 calls
bMatrix pseudoinverse               :      0.017u      0.000s      0.003w     34 calls
New vector                          :      0.567u      0.050s      0.101w     34 calls
HF: Form C                          :     13.483u      0.267s      2.043w     34 calls
DF Integrals                        :    313.400u     23.567s     57.803w      1 calls
Omega Integrals                     :      3.150u      2.050s      1.617w      1 calls
Amplitudes                          :    555.750u     15.433s     93.680w      1 calls
Elst10                              :      0.000u      0.000s      0.000w      1 calls
Exch10 S^2                          :      0.017u      0.000s      0.002w      1 calls
Exch10                              :      0.017u      0.000s      0.004w      1 calls
Ind20,r                             :     48.217u      1.333s      7.442w      1 calls
Exch-Ind20,r                        :      1.233u      0.217s      0.218w      1 calls
Disp20                              :      3.100u      0.150s      0.490w      1 calls
Exch-Disp20                         :     41.600u      0.717s      6.400w      1 calls
Elst12                              :      0.000u      0.000s      0.001w      1 calls
Exch11                              :      0.567u      0.100s      0.097w      1 calls
Exch12                              :    283.650u     10.283s     47.362w      1 calls
Ind22                               :     36.950u      6.717s      8.864w      1 calls
Disp21                              :      1.667u      0.417s      0.312w      1 calls
Disp22 (SDQ)                        :     74.733u      4.200s     12.657w      1 calls
Disp22 (T)                          :   3336.967u     25.133s    505.273w      1 calls

--------------------------------------------------------------------------------------
JK: (A|mn)                          :     22.100u      0.000s      3.320w      1 calls
JK: (A|Q)^-1/2                      :      2.667u      0.067s      0.410w      1 calls
JK: (Q|mn)                          :     11.817u      0.033s      1.779w      1 calls
HF: Form core H                     :      0.017u      0.033s      0.037w      3 calls
HF: Form S/X                        :      1.100u      0.017s      0.172w      3 calls
HF: Guess                           :     13.733u      0.450s      2.128w      3 calls
| SAD Guess                         :     13.483u      0.450s      2.091w      3 calls
HF: Form G                          :    179.267u      1.233s     27.143w     37 calls
| JK: D                             :      0.067u      0.000s      0.010w     37 calls
| JK: USO2AO                        :      0.083u      0.000s      0.011w     37 calls
| JK: JK                            :    178.917u      1.233s     27.100w     37 calls
| | JK: J                           :     12.667u      0.067s      1.912w     37 calls
| | | JK: J1                        :      6.133u      0.033s      0.932w     37 calls
| | | JK: J2                        :      6.183u      0.017s      0.936w     37 calls
| | JK: K                           :    162.683u      0.217s     24.491w     37 calls
| | | JK: K1                        :    145.500u      0.183s     21.909w     37 calls
| | | JK: K2                        :     17.067u      0.033s      2.575w     37 calls
| JK: AO2USO                        :      0.000u      0.000s      0.000w     37 calls
HF: Form F                          :      0.100u      0.000s      0.011w     37 calls
HF: Form D                          :      0.050u      0.000s      0.011w     37 calls
HF: DIIS                            :      3.850u      0.383s      0.648w     34 calls
| DIISManager::add_entry            :      0.467u      0.117s      0.088w     34 calls
| DIISManager::extrapolate          :      1.133u      0.217s      0.213w     34 calls
| | bMatrix setup                   :      0.517u      0.167s      0.109w     34 calls
| | bMatrix pseudoinverse           :      0.017u      0.000s      0.003w     34 calls
| | New vector                      :      0.567u      0.050s      0.101w     34 calls
HF: Form C                          :     13.483u      0.267s      2.043w     34 calls
DF Integrals                        :    313.400u     23.567s     57.803w      1 calls
Omega Integrals                     :      3.150u      2.050s      1.617w      1 calls
Amplitudes                          :    555.750u     15.433s     93.680w      1 calls
Elst10                              :      0.000u      0.000s      0.000w      1 calls
Exch10 S^2                          :      0.017u      0.000s      0.002w      1 calls
Exch10                              :      0.017u      0.000s      0.004w      1 calls
Ind20,r                             :     48.217u      1.333s      7.442w      1 calls
Exch-Ind20,r                        :      1.233u      0.217s      0.218w      1 calls
Disp20                              :      3.100u      0.150s      0.490w      1 calls
Exch-Disp20                         :     41.600u      0.717s      6.400w      1 calls
Elst12                              :      0.000u      0.000s      0.001w      1 calls
Exch11                              :      0.567u      0.100s      0.097w      1 calls
Exch12                              :    283.650u     10.283s     47.362w      1 calls
Ind22                               :     36.950u      6.717s      8.864w      1 calls
Disp21                              :      1.667u      0.417s      0.312w      1 calls
Disp22 (SDQ)                        :     74.733u      4.200s     12.657w      1 calls
Disp22 (T)                          :   3336.967u     25.133s    505.273w      1 calls

**************************************************************************************

Host: node54.bme.utexas.edu

Timers On : Mon Sep  9 17:15:06 2019
Timers Off: Mon Sep  9 17:28:06 2019

Wall Time:      780.00 seconds

                                                       Time (seconds)
Module                                       User      System        Wall        Calls
JK: (A|mn)                          :     21.300u      0.000s      3.199w      1 calls
JK: (A|Q)^-1/2                      :      2.683u      0.067s      0.416w      1 calls
JK: (Q|mn)                          :     11.633u      0.017s      1.750w      1 calls
HF: Form core H                     :      0.033u      0.017s      0.095w      3 calls
HF: Form S/X                        :      1.050u      0.033s      0.164w      3 calls
HF: Guess                           :     13.583u      0.500s      2.113w      3 calls
SAD Guess                           :     13.350u      0.500s      2.076w      3 calls
HF: Form G                          :    173.983u      1.117s     26.324w     37 calls
JK: D                               :      0.033u      0.000s      0.010w     37 calls
JK: USO2AO                          :      0.050u      0.000s      0.010w     37 calls
JK: JK                              :    173.700u      1.117s     26.282w     37 calls
JK: J                               :     10.967u      0.000s      1.665w     37 calls
JK: J1                              :      5.450u      0.000s      0.818w     37 calls
JK: J2                              :      5.317u      0.000s      0.806w     37 calls
JK: K                               :    159.250u      0.050s     23.928w     37 calls
JK: K1                              :    142.100u      0.033s     21.362w     37 calls
JK: K2                              :     17.083u      0.017s      2.561w     37 calls
JK: AO2USO                          :      0.000u      0.000s      0.000w     37 calls
HF: Form F                          :      0.050u      0.000s      0.011w     37 calls
HF: Form D                          :      0.100u      0.000s      0.010w     37 calls
HF: DIIS                            :      3.817u      0.383s      0.636w     34 calls
DIISManager::add_entry              :      0.500u      0.133s      0.093w     34 calls
DIISManager::extrapolate            :      1.033u      0.233s      0.196w     34 calls
bMatrix setup                       :      0.483u      0.100s      0.094w     34 calls
bMatrix pseudoinverse               :      0.000u      0.000s      0.003w     34 calls
New vector                          :      0.550u      0.133s      0.098w     34 calls
HF: Form C                          :     12.317u      0.167s      1.881w     34 calls
DF Integrals                        :    310.950u     20.750s     55.213w      1 calls
Omega Integrals                     :      3.217u      1.783s      1.462w      1 calls
Amplitudes                          :    553.233u     14.867s     89.761w      1 calls
Elst10                              :      0.000u      0.000s      0.000w      1 calls
Exch10 S^2                          :      0.000u      0.000s      0.002w      1 calls
Exch10                              :      0.033u      0.000s      0.004w      1 calls
Ind20,r                             :     47.150u      1.100s      7.249w      1 calls
Exch-Ind20,r                        :      1.167u      0.217s      0.209w      1 calls
Disp20                              :      3.083u      0.167s      0.488w      1 calls
Exch-Disp20                         :     41.467u      0.800s      6.395w      1 calls
Elst12                              :      0.000u      0.000s      0.001w      1 calls
Exch11                              :      0.500u      0.083s      0.090w      1 calls
Exch12                              :    279.633u      9.883s     46.448w      1 calls
Ind22                               :     36.200u      6.350s      8.504w      1 calls
Disp21                              :      1.600u      0.417s      0.301w      1 calls
Disp22 (SDQ)                        :     73.733u      4.167s     12.420w      1 calls
Disp22 (T)                          :   3340.250u     24.900s    505.535w      1 calls

--------------------------------------------------------------------------------------
JK: (A|mn)                          :     21.300u      0.000s      3.199w      1 calls
JK: (A|Q)^-1/2                      :      2.683u      0.067s      0.416w      1 calls
JK: (Q|mn)                          :     11.633u      0.017s      1.750w      1 calls
HF: Form core H                     :      0.033u      0.017s      0.095w      3 calls
HF: Form S/X                        :      1.050u      0.033s      0.164w      3 calls
HF: Guess                           :     13.583u      0.500s      2.113w      3 calls
| SAD Guess                         :     13.350u      0.500s      2.076w      3 calls
HF: Form G                          :    173.983u      1.117s     26.324w     37 calls
| JK: D                             :      0.033u      0.000s      0.010w     37 calls
| JK: USO2AO                        :      0.050u      0.000s      0.010w     37 calls
| JK: JK                            :    173.700u      1.117s     26.282w     37 calls
| | JK: J                           :     10.967u      0.000s      1.665w     37 calls
| | | JK: J1                        :      5.450u      0.000s      0.818w     37 calls
| | | JK: J2                        :      5.317u      0.000s      0.806w     37 calls
| | JK: K                           :    159.250u      0.050s     23.928w     37 calls
| | | JK: K1                        :    142.100u      0.033s     21.362w     37 calls
| | | JK: K2                        :     17.083u      0.017s      2.561w     37 calls
| JK: AO2USO                        :      0.000u      0.000s      0.000w     37 calls
HF: Form F                          :      0.050u      0.000s      0.011w     37 calls
HF: Form D                          :      0.100u      0.000s      0.010w     37 calls
HF: DIIS                            :      3.817u      0.383s      0.636w     34 calls
| DIISManager::add_entry            :      0.500u      0.133s      0.093w     34 calls
| DIISManager::extrapolate          :      1.033u      0.233s      0.196w     34 calls
| | bMatrix setup                   :      0.483u      0.100s      0.094w     34 calls
| | bMatrix pseudoinverse           :      0.000u      0.000s      0.003w     34 calls
| | New vector                      :      0.550u      0.133s      0.098w     34 calls
HF: Form C                          :     12.317u      0.167s      1.881w     34 calls
DF Integrals                        :    310.950u     20.750s     55.213w      1 calls
Omega Integrals                     :      3.217u      1.783s      1.462w      1 calls
Amplitudes                          :    553.233u     14.867s     89.761w      1 calls
Elst10                              :      0.000u      0.000s      0.000w      1 calls
Exch10 S^2                          :      0.000u      0.000s      0.002w      1 calls
Exch10                              :      0.033u      0.000s      0.004w      1 calls
Ind20,r                             :     47.150u      1.100s      7.249w      1 calls
Exch-Ind20,r                        :      1.167u      0.217s      0.209w      1 calls
Disp20                              :      3.083u      0.167s      0.488w      1 calls
Exch-Disp20                         :     41.467u      0.800s      6.395w      1 calls
Elst12                              :      0.000u      0.000s      0.001w      1 calls
Exch11                              :      0.500u      0.083s      0.090w      1 calls
Exch12                              :    279.633u      9.883s     46.448w      1 calls
Ind22                               :     36.200u      6.350s      8.504w      1 calls
Disp21                              :      1.600u      0.417s      0.301w      1 calls
Disp22 (SDQ)                        :     73.733u      4.167s     12.420w      1 calls
Disp22 (T)                          :   3340.250u     24.900s    505.535w      1 calls

**************************************************************************************

Host: node54.bme.utexas.edu

Timers On : Mon Sep  9 17:28:38 2019
Timers Off: Mon Sep  9 17:41:38 2019

Wall Time:      779.96 seconds

                                                       Time (seconds)
Module                                       User      System        Wall        Calls
JK: (A|mn)                          :     21.500u      0.000s      3.230w      1 calls
JK: (A|Q)^-1/2                      :      2.617u      0.083s      0.406w      1 calls
JK: (Q|mn)                          :     11.933u      0.017s      1.797w      1 calls
HF: Form core H                     :      0.033u      0.000s      0.088w      3 calls
HF: Form S/X                        :      1.067u      0.050s      0.165w      3 calls
HF: Guess                           :     14.083u      0.350s      2.170w      3 calls
SAD Guess                           :     13.850u      0.350s      2.132w      3 calls
HF: Form G                          :    174.333u      1.067s     26.371w     37 calls
JK: D                               :      0.083u      0.000s      0.010w     37 calls
JK: USO2AO                          :      0.050u      0.000s      0.011w     37 calls
JK: JK                              :    174.033u      1.067s     26.327w     37 calls
JK: J                               :     11.167u      0.050s      1.695w     37 calls
JK: J1                              :      5.533u      0.017s      0.830w     37 calls
JK: J2                              :      5.400u      0.033s      0.820w     37 calls
JK: K                               :    159.350u      0.050s     23.944w     37 calls
JK: K1                              :    142.250u      0.000s     21.379w     37 calls
JK: K2                              :     17.000u      0.050s      2.559w     37 calls
JK: AO2USO                          :      0.000u      0.000s      0.000w     37 calls
HF: Form F                          :      0.083u      0.000s      0.011w     37 calls
HF: Form D                          :      0.083u      0.000s      0.011w     37 calls
HF: DIIS                            :      3.833u      0.450s      0.645w     34 calls
DIISManager::add_entry              :      0.433u      0.133s      0.094w     34 calls
DIISManager::extrapolate            :      1.017u      0.317s      0.201w     34 calls
bMatrix setup                       :      0.467u      0.150s      0.097w     34 calls
bMatrix pseudoinverse               :      0.017u      0.000s      0.003w     34 calls
New vector                          :      0.533u      0.167s      0.101w     34 calls
HF: Form C                          :     12.367u      0.183s      1.879w     34 calls
DF Integrals                        :    309.733u     20.717s     55.145w      1 calls
Omega Integrals                     :      3.117u      1.850s      1.453w      1 calls
Amplitudes                          :    545.883u     14.950s     91.837w      1 calls
Elst10                              :      0.000u      0.000s      0.000w      1 calls
Exch10 S^2                          :      0.017u      0.000s      0.002w      1 calls
Exch10                              :      0.017u      0.000s      0.003w      1 calls
Ind20,r                             :     48.700u      1.267s      7.505w      1 calls
Exch-Ind20,r                        :      1.217u      0.200s      0.214w      1 calls
Disp20                              :      3.133u      0.183s      0.498w      1 calls
Exch-Disp20                         :     41.983u      0.717s      6.489w      1 calls
Elst12                              :      0.000u      0.000s      0.001w      1 calls
Exch11                              :      0.533u      0.100s      0.093w      1 calls
Exch12                              :    281.250u      9.950s     46.966w      1 calls
Ind22                               :     35.917u      6.683s      8.698w      1 calls
Disp21                              :      1.717u      0.467s      0.329w      1 calls
Disp22 (SDQ)                        :     74.083u      4.167s     12.551w      1 calls
Disp22 (T)                          :   3322.133u     20.917s    502.407w      1 calls

--------------------------------------------------------------------------------------
JK: (A|mn)                          :     21.500u      0.000s      3.230w      1 calls
JK: (A|Q)^-1/2                      :      2.617u      0.083s      0.406w      1 calls
JK: (Q|mn)                          :     11.933u      0.017s      1.797w      1 calls
HF: Form core H                     :      0.033u      0.000s      0.088w      3 calls
HF: Form S/X                        :      1.067u      0.050s      0.165w      3 calls
HF: Guess                           :     14.083u      0.350s      2.170w      3 calls
| SAD Guess                         :     13.850u      0.350s      2.132w      3 calls
HF: Form G                          :    174.333u      1.067s     26.371w     37 calls
| JK: D                             :      0.083u      0.000s      0.010w     37 calls
| JK: USO2AO                        :      0.050u      0.000s      0.011w     37 calls
| JK: JK                            :    174.033u      1.067s     26.327w     37 calls
| | JK: J                           :     11.167u      0.050s      1.695w     37 calls
| | | JK: J1                        :      5.533u      0.017s      0.830w     37 calls
| | | JK: J2                        :      5.400u      0.033s      0.820w     37 calls
| | JK: K                           :    159.350u      0.050s     23.944w     37 calls
| | | JK: K1                        :    142.250u      0.000s     21.379w     37 calls
| | | JK: K2                        :     17.000u      0.050s      2.559w     37 calls
| JK: AO2USO                        :      0.000u      0.000s      0.000w     37 calls
HF: Form F                          :      0.083u      0.000s      0.011w     37 calls
HF: Form D                          :      0.083u      0.000s      0.011w     37 calls
HF: DIIS                            :      3.833u      0.450s      0.645w     34 calls
| DIISManager::add_entry            :      0.433u      0.133s      0.094w     34 calls
| DIISManager::extrapolate          :      1.017u      0.317s      0.201w     34 calls
| | bMatrix setup                   :      0.467u      0.150s      0.097w     34 calls
| | bMatrix pseudoinverse           :      0.017u      0.000s      0.003w     34 calls
| | New vector                      :      0.533u      0.167s      0.101w     34 calls
HF: Form C                          :     12.367u      0.183s      1.879w     34 calls
DF Integrals                        :    309.733u     20.717s     55.145w      1 calls
Omega Integrals                     :      3.117u      1.850s      1.453w      1 calls
Amplitudes                          :    545.883u     14.950s     91.837w      1 calls
Elst10                              :      0.000u      0.000s      0.000w      1 calls
Exch10 S^2                          :      0.017u      0.000s      0.002w      1 calls
Exch10                              :      0.017u      0.000s      0.003w      1 calls
Ind20,r                             :     48.700u      1.267s      7.505w      1 calls
Exch-Ind20,r                        :      1.217u      0.200s      0.214w      1 calls
Disp20                              :      3.133u      0.183s      0.498w      1 calls
Exch-Disp20                         :     41.983u      0.717s      6.489w      1 calls
Elst12                              :      0.000u      0.000s      0.001w      1 calls
Exch11                              :      0.533u      0.100s      0.093w      1 calls
Exch12                              :    281.250u      9.950s     46.966w      1 calls
Ind22                               :     35.917u      6.683s      8.698w      1 calls
Disp21                              :      1.717u      0.467s      0.329w      1 calls
Disp22 (SDQ)                        :     74.083u      4.167s     12.551w      1 calls
Disp22 (T)                          :   3322.133u     20.917s    502.407w      1 calls

**************************************************************************************

Host: node54.bme.utexas.edu

Timers On : Mon Sep  9 17:42:09 2019
Timers Off: Mon Sep  9 17:53:17 2019

Wall Time:      667.79 seconds

                                                       Time (seconds)
Module                                       User      System        Wall        Calls
JK: (A|mn)                          :     16.217u      0.000s      2.437w      1 calls
JK: (A|Q)^-1/2                      :      2.200u      0.050s      0.337w      1 calls
JK: (Q|mn)                          :      7.833u      0.017s      1.179w      1 calls
HF: Form core H                     :      0.017u      0.000s      0.048w      3 calls
HF: Form S/X                        :      0.833u      0.033s      0.128w      3 calls
HF: Guess                           :     13.900u      0.433s      2.155w      3 calls
SAD Guess                           :     13.700u      0.417s      2.117w      3 calls
HF: Form G                          :    114.300u      0.750s     17.288w     38 calls
JK: D                               :      0.083u      0.000s      0.009w     38 calls
JK: USO2AO                          :      0.033u      0.000s      0.009w     38 calls
JK: JK                              :    114.050u      0.750s     17.251w     38 calls
JK: J                               :      8.300u      0.033s      1.257w     38 calls
JK: J1                              :      4.133u      0.033s      0.620w     38 calls
JK: J2                              :      3.983u      0.000s      0.601w     38 calls
JK: K                               :    103.217u      0.033s     15.503w     38 calls
JK: K1                              :     90.250u      0.017s     13.568w     38 calls
JK: K2                              :     12.833u      0.017s      1.930w     38 calls
JK: AO2USO                          :      0.000u      0.000s      0.000w     38 calls
HF: Form F                          :      0.067u      0.000s      0.010w     38 calls
HF: Form D                          :      0.067u      0.000s      0.009w     38 calls
HF: DIIS                            :      3.067u      0.300s      0.509w     35 calls
DIISManager::add_entry              :      0.367u      0.100s      0.075w     35 calls
DIISManager::extrapolate            :      0.933u      0.200s      0.165w     35 calls
bMatrix setup                       :      0.400u      0.150s      0.079w     35 calls
bMatrix pseudoinverse               :      0.033u      0.000s      0.003w     35 calls
New vector                          :      0.500u      0.050s      0.082w     35 calls
HF: Form C                          :      9.683u      0.167s      1.484w     35 calls
DF Integrals                        :    226.983u     18.950s     80.022w      1 calls
Omega Integrals                     :      2.700u      1.367s      1.072w      1 calls
Amplitudes                          :    480.767u     11.383s     77.129w      1 calls
Elst10                              :      0.000u      0.000s      0.000w      1 calls
Exch10 S^2                          :      0.017u      0.000s      0.002w      1 calls
Exch10                              :      0.017u      0.000s      0.003w      1 calls
Ind20,r                             :     36.717u      1.000s      5.664w      1 calls
Exch-Ind20,r                        :      0.933u      0.100s      0.157w      1 calls
Disp20                              :      2.433u      0.150s      0.389w      1 calls
Exch-Disp20                         :     30.650u      0.483s      4.679w      1 calls
Elst12                              :      0.000u      0.000s      0.001w      1 calls
Exch11                              :      0.450u      0.067s      0.078w      1 calls
Exch12                              :    197.183u      7.200s     32.636w      1 calls
Ind22                               :     29.533u      4.883s      6.554w      1 calls
Disp21                              :      1.317u      0.300s      0.244w      1 calls
Disp22 (SDQ)                        :     55.400u      3.150s      9.251w      1 calls
Disp22 (T)                          :   2756.850u     15.300s    416.640w      1 calls

--------------------------------------------------------------------------------------
JK: (A|mn)                          :     16.217u      0.000s      2.437w      1 calls
JK: (A|Q)^-1/2                      :      2.200u      0.050s      0.337w      1 calls
JK: (Q|mn)                          :      7.833u      0.017s      1.179w      1 calls
HF: Form core H                     :      0.017u      0.000s      0.048w      3 calls
HF: Form S/X                        :      0.833u      0.033s      0.128w      3 calls
HF: Guess                           :     13.900u      0.433s      2.155w      3 calls
| SAD Guess                         :     13.700u      0.417s      2.117w      3 calls
HF: Form G                          :    114.300u      0.750s     17.288w     38 calls
| JK: D                             :      0.083u      0.000s      0.009w     38 calls
| JK: USO2AO                        :      0.033u      0.000s      0.009w     38 calls
| JK: JK                            :    114.050u      0.750s     17.251w     38 calls
| | JK: J                           :      8.300u      0.033s      1.257w     38 calls
| | | JK: J1                        :      4.133u      0.033s      0.620w     38 calls
| | | JK: J2                        :      3.983u      0.000s      0.601w     38 calls
| | JK: K                           :    103.217u      0.033s     15.503w     38 calls
| | | JK: K1                        :     90.250u      0.017s     13.568w     38 calls
| | | JK: K2                        :     12.833u      0.017s      1.930w     38 calls
| JK: AO2USO                        :      0.000u      0.000s      0.000w     38 calls
HF: Form F                          :      0.067u      0.000s      0.010w     38 calls
HF: Form D                          :      0.067u      0.000s      0.009w     38 calls
HF: DIIS                            :      3.067u      0.300s      0.509w     35 calls
| DIISManager::add_entry            :      0.367u      0.100s      0.075w     35 calls
| DIISManager::extrapolate          :      0.933u      0.200s      0.165w     35 calls
| | bMatrix setup                   :      0.400u      0.150s      0.079w     35 calls
| | bMatrix pseudoinverse           :      0.033u      0.000s      0.003w     35 calls
| | New vector                      :      0.500u      0.050s      0.082w     35 calls
HF: Form C                          :      9.683u      0.167s      1.484w     35 calls
DF Integrals                        :    226.983u     18.950s     80.022w      1 calls
Omega Integrals                     :      2.700u      1.367s      1.072w      1 calls
Amplitudes                          :    480.767u     11.383s     77.129w      1 calls
Elst10                              :      0.000u      0.000s      0.000w      1 calls
Exch10 S^2                          :      0.017u      0.000s      0.002w      1 calls
Exch10                              :      0.017u      0.000s      0.003w      1 calls
Ind20,r                             :     36.717u      1.000s      5.664w      1 calls
Exch-Ind20,r                        :      0.933u      0.100s      0.157w      1 calls
Disp20                              :      2.433u      0.150s      0.389w      1 calls
Exch-Disp20                         :     30.650u      0.483s      4.679w      1 calls
Elst12                              :      0.000u      0.000s      0.001w      1 calls
Exch11                              :      0.450u      0.067s      0.078w      1 calls
Exch12                              :    197.183u      7.200s     32.636w      1 calls
Ind22                               :     29.533u      4.883s      6.554w      1 calls
Disp21                              :      1.317u      0.300s      0.244w      1 calls
Disp22 (SDQ)                        :     55.400u      3.150s      9.251w      1 calls
Disp22 (T)                          :   2756.850u     15.300s    416.640w      1 calls

**************************************************************************************

Host: node54.bme.utexas.edu

Timers On : Mon Sep  9 17:53:48 2019
Timers Off: Mon Sep  9 18:03:18 2019

Wall Time:      569.90 seconds

                                                       Time (seconds)
Module                                       User      System        Wall        Calls
JK: (A|mn)                          :     16.150u      0.017s      2.428w      1 calls
JK: (A|Q)^-1/2                      :      2.200u      0.050s      0.338w      1 calls
JK: (Q|mn)                          :      7.883u      0.033s      1.188w      1 calls
HF: Form core H                     :      0.000u      0.017s      0.080w      3 calls
HF: Form S/X                        :      0.833u      0.033s      0.130w      3 calls
HF: Guess                           :     13.767u      0.400s      2.127w      3 calls
SAD Guess                           :     13.517u      0.400s      2.090w      3 calls
HF: Form G                          :    114.033u      0.700s     17.245w     38 calls
JK: D                               :      0.067u      0.000s      0.009w     38 calls
JK: USO2AO                          :      0.100u      0.000s      0.009w     38 calls
JK: JK                              :    113.783u      0.700s     17.209w     38 calls
JK: J                               :      8.850u      0.117s      1.342w     38 calls
JK: J1                              :      4.350u      0.033s      0.656w     38 calls
JK: J2                              :      4.300u      0.050s      0.651w     38 calls
JK: K                               :    102.250u      0.050s     15.377w     38 calls
JK: K1                              :     89.233u      0.017s     13.419w     38 calls
JK: K2                              :     12.917u      0.017s      1.953w     38 calls
JK: AO2USO                          :      0.000u      0.000s      0.000w     38 calls
HF: Form F                          :      0.067u      0.000s      0.010w     38 calls
HF: Form D                          :      0.017u      0.017s      0.009w     38 calls
HF: DIIS                            :      3.067u      0.317s      0.518w     35 calls
DIISManager::add_entry              :      0.367u      0.150s      0.077w     35 calls
DIISManager::extrapolate            :      0.900u      0.150s      0.172w     35 calls
bMatrix setup                       :      0.483u      0.083s      0.086w     35 calls
bMatrix pseudoinverse               :      0.000u      0.000s      0.003w     35 calls
New vector                          :      0.417u      0.067s      0.083w     35 calls
HF: Form C                          :      9.950u      0.117s      1.503w     35 calls
DF Integrals                        :    227.217u     15.333s     40.254w      1 calls
Omega Integrals                     :      2.850u      1.400s      1.106w      1 calls
Amplitudes                          :    433.117u     12.300s     69.988w      1 calls
Elst10                              :      0.000u      0.000s      0.000w      1 calls
Exch10 S^2                          :      0.017u      0.017s      0.002w      1 calls
Exch10                              :      0.017u      0.000s      0.004w      1 calls
Ind20,r                             :     36.650u      1.017s      5.661w      1 calls
Exch-Ind20,r                        :      0.883u      0.117s      0.150w      1 calls
Disp20                              :      2.383u      0.150s      0.378w      1 calls
Exch-Disp20                         :     30.200u      0.533s      4.640w      1 calls
Elst12                              :      0.000u      0.000s      0.001w      1 calls
Exch11                              :      0.450u      0.067s      0.078w      1 calls
Exch12                              :    197.533u      7.600s     32.745w      1 calls
Ind22                               :     29.567u      5.033s      6.594w      1 calls
Disp21                              :      1.350u      0.367s      0.258w      1 calls
Disp22 (SDQ)                        :     55.000u      3.250s      9.234w      1 calls
Disp22 (T)                          :   2419.150u     17.050s    366.111w      1 calls

--------------------------------------------------------------------------------------
JK: (A|mn)                          :     16.150u      0.017s      2.428w      1 calls
JK: (A|Q)^-1/2                      :      2.200u      0.050s      0.338w      1 calls
JK: (Q|mn)                          :      7.883u      0.033s      1.188w      1 calls
HF: Form core H                     :      0.000u      0.017s      0.080w      3 calls
HF: Form S/X                        :      0.833u      0.033s      0.130w      3 calls
HF: Guess                           :     13.767u      0.400s      2.127w      3 calls
| SAD Guess                         :     13.517u      0.400s      2.090w      3 calls
HF: Form G                          :    114.033u      0.700s     17.245w     38 calls
| JK: D                             :      0.067u      0.000s      0.009w     38 calls
| JK: USO2AO                        :      0.100u      0.000s      0.009w     38 calls
| JK: JK                            :    113.783u      0.700s     17.209w     38 calls
| | JK: J                           :      8.850u      0.117s      1.342w     38 calls
| | | JK: J1                        :      4.350u      0.033s      0.656w     38 calls
| | | JK: J2                        :      4.300u      0.050s      0.651w     38 calls
| | JK: K                           :    102.250u      0.050s     15.377w     38 calls
| | | JK: K1                        :     89.233u      0.017s     13.419w     38 calls
| | | JK: K2                        :     12.917u      0.017s      1.953w     38 calls
| JK: AO2USO                        :      0.000u      0.000s      0.000w     38 calls
HF: Form F                          :      0.067u      0.000s      0.010w     38 calls
HF: Form D                          :      0.017u      0.017s      0.009w     38 calls
HF: DIIS                            :      3.067u      0.317s      0.518w     35 calls
| DIISManager::add_entry            :      0.367u      0.150s      0.077w     35 calls
| DIISManager::extrapolate          :      0.900u      0.150s      0.172w     35 calls
| | bMatrix setup                   :      0.483u      0.083s      0.086w     35 calls
| | bMatrix pseudoinverse           :      0.000u      0.000s      0.003w     35 calls
| | New vector                      :      0.417u      0.067s      0.083w     35 calls
HF: Form C                          :      9.950u      0.117s      1.503w     35 calls
DF Integrals                        :    227.217u     15.333s     40.254w      1 calls
Omega Integrals                     :      2.850u      1.400s      1.106w      1 calls
Amplitudes                          :    433.117u     12.300s     69.988w      1 calls
Elst10                              :      0.000u      0.000s      0.000w      1 calls
Exch10 S^2                          :      0.017u      0.017s      0.002w      1 calls
Exch10                              :      0.017u      0.000s      0.004w      1 calls
Ind20,r                             :     36.650u      1.017s      5.661w      1 calls
Exch-Ind20,r                        :      0.883u      0.117s      0.150w      1 calls
Disp20                              :      2.383u      0.150s      0.378w      1 calls
Exch-Disp20                         :     30.200u      0.533s      4.640w      1 calls
Elst12                              :      0.000u      0.000s      0.001w      1 calls
Exch11                              :      0.450u      0.067s      0.078w      1 calls
Exch12                              :    197.533u      7.600s     32.745w      1 calls
Ind22                               :     29.567u      5.033s      6.594w      1 calls
Disp21                              :      1.350u      0.367s      0.258w      1 calls
Disp22 (SDQ)                        :     55.000u      3.250s      9.234w      1 calls
Disp22 (T)                          :   2419.150u     17.050s    366.111w      1 calls

**************************************************************************************

Host: node54.bme.utexas.edu

Timers On : Mon Sep  9 18:03:48 2019
Timers Off: Mon Sep  9 18:12:44 2019

Wall Time:      535.15 seconds

                                                       Time (seconds)
Module                                       User      System        Wall        Calls
JK: (A|mn)                          :     16.917u      0.000s      2.540w      1 calls
JK: (A|Q)^-1/2                      :      2.117u      0.083s      0.329w      1 calls
JK: (Q|mn)                          :      7.917u      0.017s      1.192w      1 calls
HF: Form core H                     :      0.000u      0.000s      0.069w      3 calls
HF: Form S/X                        :      0.800u      0.000s      0.121w      3 calls
HF: Guess                           :     13.950u      0.350s      2.145w      3 calls
SAD Guess                           :     13.700u      0.333s      2.108w      3 calls
HF: Form G                          :    117.900u      0.800s     17.833w     38 calls
JK: D                               :      0.100u      0.017s      0.009w     38 calls
JK: USO2AO                          :      0.017u      0.000s      0.009w     38 calls
JK: JK                              :    117.633u      0.783s     17.797w     38 calls
JK: J                               :      9.233u      0.083s      1.398w     38 calls
JK: J1                              :      4.517u      0.033s      0.682w     38 calls
JK: J2                              :      4.467u      0.050s      0.679w     38 calls
JK: K                               :    105.817u      0.067s     15.904w     38 calls
JK: K1                              :     93.050u      0.033s     13.990w     38 calls
JK: K2                              :     12.667u      0.033s      1.910w     38 calls
JK: AO2USO                          :      0.000u      0.000s      0.000w     38 calls
HF: Form F                          :      0.117u      0.000s      0.010w     38 calls
HF: Form D                          :      0.050u      0.000s      0.009w     38 calls
HF: DIIS                            :      3.100u      0.317s      0.526w     35 calls
DIISManager::add_entry              :      0.333u      0.100s      0.080w     35 calls
DIISManager::extrapolate            :      0.950u      0.200s      0.178w     35 calls
bMatrix setup                       :      0.450u      0.133s      0.090w     35 calls
bMatrix pseudoinverse               :      0.017u      0.000s      0.003w     35 calls
New vector                          :      0.483u      0.067s      0.085w     35 calls
HF: Form C                          :     10.000u      0.100s      1.515w     35 calls
DF Integrals                        :    224.967u     15.633s     40.223w      1 calls
Omega Integrals                     :      2.750u      1.350s      1.075w      1 calls
Amplitudes                          :    395.667u     11.483s     64.087w      1 calls
Elst10                              :      0.000u      0.000s      0.000w      1 calls
Exch10 S^2                          :      0.017u      0.000s      0.002w      1 calls
Exch10                              :      0.017u      0.000s      0.003w      1 calls
Ind20,r                             :     37.550u      0.983s      5.788w      1 calls
Exch-Ind20,r                        :      1.017u      0.150s      0.173w      1 calls
Disp20                              :      2.350u      0.117s      0.372w      1 calls
Exch-Disp20                         :     30.267u      0.450s      4.615w      1 calls
Elst12                              :      0.017u      0.000s      0.001w      1 calls
Exch11                              :      0.433u      0.067s      0.078w      1 calls
Exch12                              :    197.083u      6.967s     32.585w      1 calls
Ind22                               :     29.083u      4.817s      6.427w      1 calls
Disp21                              :      1.233u      0.317s      0.233w      1 calls
Disp22 (SDQ)                        :     54.817u      3.117s      9.165w      1 calls
Disp22 (T)                          :   2221.767u     15.483s    336.137w      1 calls

--------------------------------------------------------------------------------------
JK: (A|mn)                          :     16.917u      0.000s      2.540w      1 calls
JK: (A|Q)^-1/2                      :      2.117u      0.083s      0.329w      1 calls
JK: (Q|mn)                          :      7.917u      0.017s      1.192w      1 calls
HF: Form core H                     :      0.000u      0.000s      0.069w      3 calls
HF: Form S/X                        :      0.800u      0.000s      0.121w      3 calls
HF: Guess                           :     13.950u      0.350s      2.145w      3 calls
| SAD Guess                         :     13.700u      0.333s      2.108w      3 calls
HF: Form G                          :    117.900u      0.800s     17.833w     38 calls
| JK: D                             :      0.100u      0.017s      0.009w     38 calls
| JK: USO2AO                        :      0.017u      0.000s      0.009w     38 calls
| JK: JK                            :    117.633u      0.783s     17.797w     38 calls
| | JK: J                           :      9.233u      0.083s      1.398w     38 calls
| | | JK: J1                        :      4.517u      0.033s      0.682w     38 calls
| | | JK: J2                        :      4.467u      0.050s      0.679w     38 calls
| | JK: K                           :    105.817u      0.067s     15.904w     38 calls
| | | JK: K1                        :     93.050u      0.033s     13.990w     38 calls
| | | JK: K2                        :     12.667u      0.033s      1.910w     38 calls
| JK: AO2USO                        :      0.000u      0.000s      0.000w     38 calls
HF: Form F                          :      0.117u      0.000s      0.010w     38 calls
HF: Form D                          :      0.050u      0.000s      0.009w     38 calls
HF: DIIS                            :      3.100u      0.317s      0.526w     35 calls
| DIISManager::add_entry            :      0.333u      0.100s      0.080w     35 calls
| DIISManager::extrapolate          :      0.950u      0.200s      0.178w     35 calls
| | bMatrix setup                   :      0.450u      0.133s      0.090w     35 calls
| | bMatrix pseudoinverse           :      0.017u      0.000s      0.003w     35 calls
| | New vector                      :      0.483u      0.067s      0.085w     35 calls
HF: Form C                          :     10.000u      0.100s      1.515w     35 calls
DF Integrals                        :    224.967u     15.633s     40.223w      1 calls
Omega Integrals                     :      2.750u      1.350s      1.075w      1 calls
Amplitudes                          :    395.667u     11.483s     64.087w      1 calls
[...]
JK: (Q|mn)                          :     10.550u      0.033s      1.596w      1 calls
HF: Form core H                     :      0.000u      0.017s      0.067w      3 calls
HF: Form S/X                        :      1.017u      0.050s      0.155w      3 calls
HF: Guess                           :     16.450u      0.783s      2.600w      3 calls
| SAD Guess                         :     16.200u      0.783s      2.559w      3 calls
HF: Form G                          :    174.800u      1.450s     26.531w     38 calls
| JK: D                             :      0.067u      0.000s      0.011w     38 calls
| JK: USO2AO                        :      0.167u      0.000s      0.011w     38 calls
| JK: JK                            :    174.400u      1.417s     26.485w     38 calls
| | JK: J                           :     12.350u      0.117s      1.877w     38 calls
| | | JK: J1                        :      6.133u      0.067s      0.924w     38 calls
| | | JK: J2                        :      5.933u      0.050s      0.911w     38 calls
| | JK: K                           :    158.483u      0.117s     23.882w     38 calls
| | | JK: K1                        :    141.767u      0.017s     21.369w     38 calls
| | | JK: K2                        :     16.583u      0.083s      2.507w     38 calls
| JK: AO2USO                        :      0.000u      0.000s      0.000w     38 calls
HF: Form F                          :      0.050u      0.000s      0.015w     38 calls
HF: Form D                          :      0.050u      0.000s      0.011w     38 calls
HF: DIIS                            :      4.567u      0.483s      1.736w     35 calls
| DIISManager::add_entry            :      1.133u      0.200s      1.195w     35 calls
| DIISManager::extrapolate          :      1.067u      0.267s      0.204w     35 calls
| | bMatrix setup                   :      0.550u      0.167s      0.100w     35 calls
| | bMatrix pseudoinverse           :      0.017u      0.000s      0.003w     35 calls
| | New vector                      :      0.500u      0.100s      0.100w     35 calls
HF: Form C                          :     12.600u      0.183s      1.922w     35 calls
DF Integrals                        :    296.267u     36.883s    113.887w      1 calls
Omega Integrals                     :      3.317u      1.717s      1.444w      1 calls
Amplitudes                          :    502.367u     18.983s     85.865w      1 calls
Elst10                              :      0.000u      0.000s      0.000w      1 calls
Exch10 S^2                          :      0.017u      0.000s      0.002w      1 calls
Exch10                              :      0.017u      0.000s      0.004w      1 calls
Ind20,r                             :     46.583u      1.500s      7.221w      1 calls
Exch-Ind20,r                        :      1.183u      0.250s      0.216w      1 calls
Disp20                              :      3.133u      0.233s      0.504w      1 calls
Exch-Disp20                         :     39.183u      1.067s      6.223w      1 calls
Elst12                              :      0.000u      0.000s      0.001w      1 calls
Exch11                              :      0.567u      0.100s      0.100w      1 calls
Exch12                              :    261.417u     11.400s     44.831w      1 calls
Ind22                               :     34.083u      6.383s      8.168w      1 calls
Disp21                              :      1.567u      0.450s      0.306w      1 calls
Disp22 (SDQ)                        :     68.817u      4.067s     11.628w      1 calls
Disp22 (T)                          :   3286.767u     48.933s    501.336w      1 calls

**************************************************************************************

Host: node51.bme.utexas.edu

Timers On : Tue Sep 10 12:35:41 2019
Timers Off: Tue Sep 10 12:47:47 2019

Wall Time:      726.60 seconds

                                                       Time (seconds)
Module                                       User      System        Wall        Calls
JK: (A|mn)                          :     22.333u      0.000s      3.358w      1 calls
JK: (A|Q)^-1/2                      :      2.833u      0.067s      0.436w      1 calls
JK: (Q|mn)                          :     10.567u      0.033s      1.594w      1 calls
HF: Form core H                     :      0.017u      0.000s      0.090w      3 calls
HF: Form S/X                        :      1.083u      0.000s      0.165w      3 calls
HF: Guess                           :     16.900u      0.583s      2.634w      3 calls
SAD Guess                           :     16.633u      0.550s      2.592w      3 calls
HF: Form G                          :    217.000u      2.250s     33.031w     38 calls
JK: D                               :      0.083u      0.000s      0.014w     38 calls
JK: USO2AO                          :      0.067u      0.017s      0.015w     38 calls
JK: JK                              :    216.600u      2.183s     32.965w     38 calls
JK: J                               :     21.667u      0.367s      3.314w     38 calls
JK: J1                              :     10.800u      0.183s      1.660w     38 calls
JK: J2                              :     10.433u      0.167s      1.605w     38 calls
JK: K                               :    191.033u      0.483s     28.853w     38 calls
JK: K1                              :    172.667u      0.400s     26.066w     38 calls
JK: K2                              :     18.333u      0.083s      2.780w     38 calls
JK: AO2USO                          :      0.000u      0.000s      0.000w     38 calls
HF: Form F                          :      0.133u      0.000s      0.018w     38 calls
HF: Form D                          :      0.033u      0.017s      0.014w     38 calls
HF: DIIS                            :      4.467u      0.650s      0.786w     35 calls
DIISManager::add_entry              :      0.483u      0.200s      0.112w     35 calls
DIISManager::extrapolate            :      1.417u      0.400s      0.285w     35 calls
bMatrix setup                       :      0.717u      0.250s      0.158w     35 calls
bMatrix pseudoinverse               :      0.033u      0.000s      0.004w     35 calls
New vector                          :      0.667u      0.150s      0.122w     35 calls
HF: Form C                          :     14.233u      0.367s      2.206w     35 calls
DF Integrals                        :    296.133u     50.817s     74.535w      1 calls
Omega Integrals                     :      3.267u      2.083s      1.768w      1 calls
Amplitudes                          :    493.050u     16.550s     81.649w      1 calls
Elst10                              :      0.000u      0.000s      0.000w      1 calls
Exch10 S^2                          :      0.017u      0.000s      0.003w      1 calls
Exch10                              :      0.033u      0.000s      0.005w      1 calls
Ind20,r                             :     47.183u      1.483s      7.310w      1 calls
Exch-Ind20,r                        :      1.383u      0.283s      0.251w      1 calls
Disp20                              :      3.000u      0.217s      0.483w      1 calls
Exch-Disp20                         :     41.933u      1.017s      6.650w      1 calls
Elst12                              :      0.000u      0.000s      0.001w      1 calls
Exch11                              :      0.583u      0.100s      0.102w      1 calls
Exch12                              :    285.400u     11.783s     48.014w      1 calls
Ind22                               :     35.383u      6.350s      8.327w      1 calls
Disp21                              :      1.567u      0.433s      0.302w      1 calls
Disp22 (SDQ)                        :     68.967u      4.083s     11.652w      1 calls
Disp22 (T)                          :   2837.050u     41.000s    432.362w      1 calls

--------------------------------------------------------------------------------------
JK: (A|mn)                          :     22.333u      0.000s      3.358w      1 calls
JK: (A|Q)^-1/2                      :      2.833u      0.067s      0.436w      1 calls
JK: (Q|mn)                          :     10.567u      0.033s      1.594w      1 calls
HF: Form core H                     :      0.017u      0.000s      0.090w      3 calls
HF: Form S/X                        :      1.083u      0.000s      0.165w      3 calls
HF: Guess                           :     16.900u      0.583s      2.634w      3 calls
| SAD Guess                         :     16.633u      0.550s      2.592w      3 calls
HF: Form G                          :    217.000u      2.250s     33.031w     38 calls
| JK: D                             :      0.083u      0.000s      0.014w     38 calls
| JK: USO2AO                        :      0.067u      0.017s      0.015w     38 calls
| JK: JK                            :    216.600u      2.183s     32.965w     38 calls
| | JK: J                           :     21.667u      0.367s      3.314w     38 calls
| | | JK: J1                        :     10.800u      0.183s      1.660w     38 calls
| | | JK: J2                        :     10.433u      0.167s      1.605w     38 calls
| | JK: K                           :    191.033u      0.483s     28.853w     38 calls
| | | JK: K1                        :    172.667u      0.400s     26.066w     38 calls
| | | JK: K2                        :     18.333u      0.083s      2.780w     38 calls
| JK: AO2USO                        :      0.000u      0.000s      0.000w     38 calls
HF: Form F                          :      0.133u      0.000s      0.018w     38 calls
HF: Form D                          :      0.033u      0.017s      0.014w     38 calls
HF: DIIS                            :      4.467u      0.650s      0.786w     35 calls
| DIISManager::add_entry            :      0.483u      0.200s      0.112w     35 calls
| DIISManager::extrapolate          :      1.417u      0.400s      0.285w     35 calls
| | bMatrix setup                   :      0.717u      0.250s      0.158w     35 calls
| | bMatrix pseudoinverse           :      0.033u      0.000s      0.004w     35 calls
| | New vector                      :      0.667u      0.150s      0.122w     35 calls
HF: Form C                          :     14.233u      0.367s      2.206w     35 calls
DF Integrals                        :    296.133u     50.817s     74.535w      1 calls
Omega Integrals                     :      3.267u      2.083s      1.768w      1 calls
Amplitudes                          :    493.050u     16.550s     81.649w      1 calls
Elst10                              :      0.000u      0.000s      0.000w      1 calls
Exch10 S^2                          :      0.017u      0.000s      0.003w      1 calls
Exch10                              :      0.033u      0.000s      0.005w      1 calls
Ind20,r                             :     47.183u      1.483s      7.310w      1 calls
Exch-Ind20,r                        :      1.383u      0.283s      0.251w      1 calls
Disp20                              :      3.000u      0.217s      0.483w      1 calls
Exch-Disp20                         :     41.933u      1.017s      6.650w      1 calls
Elst12                              :      0.000u      0.000s      0.001w      1 calls
Exch11                              :      0.583u      0.100s      0.102w      1 calls
Exch12                              :    285.400u     11.783s     48.014w      1 calls
Ind22                               :     35.383u      6.350s      8.327w      1 calls
Disp21                              :      1.567u      0.433s      0.302w      1 calls
Disp22 (SDQ)                        :     68.967u      4.083s     11.652w      1 calls
Disp22 (T)                          :   2837.050u     41.000s    432.362w      1 calls

**************************************************************************************

Host: node51.bme.utexas.edu

Timers On : Tue Sep 10 12:35:41 2019
Timers Off: Tue Sep 10 12:48:20 2019

Wall Time:      758.89 seconds

                                                       Time (seconds)
Module                                       User      System        Wall        Calls
JK: (A|mn)                          :     21.467u      0.000s      3.226w      1 calls
JK: (A|Q)^-1/2                      :      2.533u      0.100s      0.397w      1 calls
JK: (Q|mn)                          :     10.667u      0.033s      1.608w      1 calls
HF: Form core H                     :      0.017u      0.017s      0.106w      3 calls
HF: Form S/X                        :      1.067u      0.050s      0.167w      3 calls
HF: Guess                           :     16.350u      1.083s      2.617w      3 calls
SAD Guess                           :     16.100u      1.067s      2.575w      3 calls
HF: Form G                          :    218.467u      2.100s     33.318w     38 calls
JK: D                               :      0.150u      0.000s      0.013w     38 calls
JK: USO2AO                          :      0.100u      0.017s      0.014w     38 calls
JK: JK                              :    217.900u      2.083s     33.258w     38 calls
JK: J                               :     19.983u      0.333s      3.090w     38 calls
JK: J1                              :     10.083u      0.167s      1.567w     38 calls
JK: J2                              :      9.583u      0.167s      1.475w     38 calls
JK: K                               :    194.250u      0.433s     29.405w     38 calls
JK: K1                              :    176.833u      0.350s     26.762w     38 calls
JK: K2                              :     17.317u      0.083s      2.636w     38 calls
JK: AO2USO                          :      0.000u      0.000s      0.000w     38 calls
HF: Form F                          :      0.083u      0.000s      0.018w     38 calls
HF: Form D                          :      0.033u      0.017s      0.014w     38 calls
HF: DIIS                            :      5.517u      0.600s      1.659w     35 calls
DIISManager::add_entry              :      1.433u      0.233s      0.987w     35 calls
DIISManager::extrapolate            :      1.533u      0.317s      0.279w     35 calls
bMatrix setup                       :      0.833u      0.183s      0.146w     35 calls
bMatrix pseudoinverse               :      0.017u      0.000s      0.004w     35 calls
New vector                          :      0.667u      0.133s      0.129w     35 calls
HF: Form C                          :     13.450u      0.500s      2.148w     35 calls
DF Integrals                        :    295.683u     54.267s     76.115w      1 calls
Omega Integrals                     :      2.967u      1.967s      1.489w      1 calls
Amplitudes                          :    487.400u     15.550s     80.256w      1 calls
Elst10                              :      0.000u      0.000s      0.000w      1 calls
Exch10 S^2                          :      0.017u      0.000s      0.003w      1 calls
Exch10                              :      0.033u      0.017s      0.006w      1 calls
Ind20,r                             :     47.850u      1.683s      7.443w      1 calls
Exch-Ind20,r                        :      1.300u      0.283s      0.239w      1 calls
Disp20                              :      3.000u      0.200s      0.480w      1 calls
Exch-Disp20                         :     40.100u      0.917s      6.265w      1 calls
Elst12                              :      0.017u      0.000s      0.001w      1 calls
Exch11                              :      0.633u      0.100s      0.113w      1 calls
Exch12                              :    277.617u     11.733s     46.718w      1 calls
Ind22                               :     34.383u      6.733s      8.211w      1 calls
Disp21                              :      1.417u      0.450s      0.294w      1 calls
Disp22 (SDQ)                        :     68.533u      4.267s     11.581w      1 calls
Disp22 (T)                          :   3042.583u     55.850s    465.603w      1 calls

--------------------------------------------------------------------------------------
JK: (A|mn)                          :     21.467u      0.000s      3.226w      1 calls
JK: (A|Q)^-1/2                      :      2.533u      0.100s      0.397w      1 calls
JK: (Q|mn)                          :     10.667u      0.033s      1.608w      1 calls
HF: Form core H                     :      0.017u      0.017s      0.106w      3 calls
HF: Form S/X                        :      1.067u      0.050s      0.167w      3 calls
HF: Guess                           :     16.350u      1.083s      2.617w      3 calls
| SAD Guess                         :     16.100u      1.067s      2.575w      3 calls
HF: Form G                          :    218.467u      2.100s     33.318w     38 calls
| JK: D                             :      0.150u      0.000s      0.013w     38 calls
| JK: USO2AO                        :      0.100u      0.017s      0.014w     38 calls
| JK: JK                            :    217.900u      2.083s     33.258w     38 calls
| | JK: J                           :     19.983u      0.333s      3.090w     38 calls
| | | JK: J1                        :     10.083u      0.167s      1.567w     38 calls
| | | JK: J2                        :      9.583u      0.167s      1.475w     38 calls
| | JK: K                           :    194.250u      0.433s     29.405w     38 calls
| | | JK: K1                        :    176.833u      0.350s     26.762w     38 calls
| | | JK: K2                        :     17.317u      0.083s      2.636w     38 calls
| JK: AO2USO                        :      0.000u      0.000s      0.000w     38 calls
HF: Form F                          :      0.083u      0.000s      0.018w     38 calls
HF: Form D                          :      0.033u      0.017s      0.014w     38 calls
HF: DIIS                            :      5.517u      0.600s      1.659w     35 calls
| DIISManager::add_entry            :      1.433u      0.233s      0.987w     35 calls
| DIISManager::extrapolate          :      1.533u      0.317s      0.279w     35 calls
| | bMatrix setup                   :      0.833u      0.183s      0.146w     35 calls
| | bMatrix pseudoinverse           :      0.017u      0.000s      0.004w     35 calls
| | New vector                      :      0.667u      0.133s      0.129w     35 calls
HF: Form C                          :     13.450u      0.500s      2.148w     35 calls
DF Integrals                        :    295.683u     54.267s     76.115w      1 calls
Omega Integrals                     :      2.967u      1.967s      1.489w      1 calls
Amplitudes                          :    487.400u     15.550s     80.256w      1 calls
Elst10                              :      0.000u      0.000s      0.000w      1 calls
Exch10 S^2                          :      0.017u      0.000s      0.003w      1 calls
Exch10                              :      0.033u      0.017s      0.006w      1 calls
Ind20,r                             :     47.850u      1.683s      7.443w      1 calls
Exch-Ind20,r                        :      1.300u      0.283s      0.239w      1 calls
Disp20                              :      3.000u      0.200s      0.480w      1 calls
Exch-Disp20                         :     40.100u      0.917s      6.265w      1 calls
Elst12                              :      0.017u      0.000s      0.001w      1 calls
Exch11                              :      0.633u      0.100s      0.113w      1 calls
Exch12                              :    277.617u     11.733s     46.718w      1 calls
Ind22                               :     34.383u      6.733s      8.211w      1 calls
Disp21                              :      1.417u      0.450s      0.294w      1 calls
Disp22 (SDQ)                        :     68.533u      4.267s     11.581w      1 calls
Disp22 (T)                          :   3042.583u     55.850s    465.603w      1 calls

**************************************************************************************
