 Entering Gaussian System, Link 0=g09
 Input=AcOHMinus_benzene.com
 Output=AcOHMinus_benzene.out
 Initial command:
 /opt/g09gh/gaussian/g09/l1.exe /scratch/xy3866/Gau-31021.inp -scrdir=/scratch/xy3866/
 Entering Link 1 = /opt/g09gh/gaussian/g09/l1.exe PID=     31022.
  
 Copyright (c) 1988,1990,1992,1993,1995,1998,2003,2009, Gaussian, Inc.
                  All Rights Reserved.
  
 This is part of the Gaussian(R) 09 program.  It is based on
 the Gaussian(R) 03 system (copyright 2003, Gaussian, Inc.),
 the Gaussian(R) 98 system (copyright 1998, Gaussian, Inc.),
 the Gaussian(R) 94 system (copyright 1995, Gaussian, Inc.),
 the Gaussian 92(TM) system (copyright 1992, Gaussian, Inc.),
 the Gaussian 90(TM) system (copyright 1990, Gaussian, Inc.),
 the Gaussian 88(TM) system (copyright 1988, Gaussian, Inc.),
 the Gaussian 86(TM) system (copyright 1986, Carnegie Mellon
 University), and the Gaussian 82(TM) system (copyright 1983,
 Carnegie Mellon University). Gaussian is a federally registered
 trademark of Gaussian, Inc.
  
 This software contains proprietary and confidential information,
 including trade secrets, belonging to Gaussian, Inc.
  
 This software is provided under written license and may be
 used, copied, transmitted, or stored only in accord with that
 written license.
  
 The following legend is applicable only to US Government
 contracts under FAR:
  
                    RESTRICTED RIGHTS LEGEND
  
 Use, reproduction and disclosure by the US Government is
 subject to restrictions as set forth in subparagraphs (a)
 and (c) of the Commercial Computer Software - Restricted
 Rights clause in FAR 52.227-19.
  
 Gaussian, Inc.
 340 Quinnipiac St., Bldg. 40, Wallingford CT 06492
  
  
 ---------------------------------------------------------------
 Warning -- This program may not be used in any manner that
 competes with the business of Gaussian, Inc. or will provide
 assistance to any competitor of Gaussian, Inc.  The licensee
 of this program is prohibited from giving any competitor of
 Gaussian, Inc. access to this program.  By using this program,
 the user acknowledges that Gaussian, Inc. is engaged in the
 business of creating and licensing software in the field of
 computational chemistry and represents and warrants to the
 licensee that it is not a competitor of Gaussian, Inc. and that
 it will not use this program in any manner prohibited above.
 ---------------------------------------------------------------
  

 Cite this work as:
 Gaussian 09, Revision A.02,
 M. J. Frisch, G. W. Trucks, H. B. Schlegel, G. E. Scuseria, 
 M. A. Robb, J. R. Cheeseman, G. Scalmani, V. Barone, B. Mennucci, 
 G. A. Petersson, H. Nakatsuji, M. Caricato, X. Li, H. P. Hratchian, 
 A. F. Izmaylov, J. Bloino, G. Zheng, J. L. Sonnenberg, M. Hada, 
 M. Ehara, K. Toyota, R. Fukuda, J. Hasegawa, M. Ishida, T. Nakajima, 
 Y. Honda, O. Kitao, H. Nakai, T. Vreven, J. A. Montgomery, Jr., 
 J. E. Peralta, F. Ogliaro, M. Bearpark, J. J. Heyd, E. Brothers, 
 K. N. Kudin, V. N. Staroverov, R. Kobayashi, J. Normand, 
 K. Raghavachari, A. Rendell, J. C. Burant, S. S. Iyengar, J. Tomasi, 
 M. Cossi, N. Rega, J. M. Millam, M. Klene, J. E. Knox, J. B. Cross, 
 V. Bakken, C. Adamo, J. Jaramillo, R. Gomperts, R. E. Stratmann, 
 O. Yazyev, A. J. Austin, R. Cammi, C. Pomelli, J. W. Ochterski, 
 R. L. Martin, K. Morokuma, V. G. Zakrzewski, G. A. Voth, 
 P. Salvador, J. J. Dannenberg, S. Dapprich, A. D. Daniels, 
 O. Farkas, J. B. Foresman, J. V. Ortiz, J. Cioslowski, 
 and D. J. Fox, Gaussian, Inc., Wallingford CT, 2009.
 
 ******************************************
 Gaussian 09:  EM64L-G09RevA.02 11-Jun-2009
                10-Sep-2019 
 ******************************************
 %NoSave
 %chk=AcOHMinus_benzene.chk
 %nproc=8
 Will use up to    8 processors via shared memory.
 %Mem=32GB
 ----------------------------------------------------------------------
 #p MP2/cc-pvtz counterpoise=2 IOP(5/13=1) Symmetry=None MaxDisk=100GB 
 Opt
 ----------------------------------------------------------------------
 1/18=20,19=15,38=1,62=2/1,3;
 2/9=110,12=2,15=1,17=6,18=5,40=1/2;
 1/18=20,19=15,38=1,53=5172,62=2,63=100/22;
 3/5=16,6=1,11=9,16=1,25=1,30=1,71=1/1,2,3;
 4//1;
 5/5=2,13=1,38=5/2;
 8/6=4,10=1/1;
 9/15=2,16=-3/6;
 10/5=1,31=1/2;
 6/7=2,8=2,9=2,10=2/1;
 7/7=1,12=2,30=1,33=-1/1,2,3,16;
 1/18=20,19=15,53=4052,62=2,63=101/22;
 3/5=7,6=11,11=9,16=1,25=1,30=1,71=1,82=7/1,2,3;
 4//1;
 5/5=2,13=1,38=5/2;
 8/6=4,10=1/1;
 9/15=2,16=-3/6;
 10/5=1,31=1/2;
 6/7=2,8=2,9=2,10=2/1;
 7/7=1,12=2,30=1,33=-1/1,2,3,16;
 1/18=20,19=15,53=3042,62=2,63=102/22;
 3/5=7,6=11,11=9,16=1,25=1,30=1,71=1,82=7/1,2,3;
 4//1;
 5/5=2,13=1,38=5/2;
 8/6=4,10=1/1;
 9/15=2,16=-3/6;
 10/5=1,31=1/2;
 6/7=2,8=2,9=2,10=2/1;
 7/7=1,12=2,30=1,33=-1/1,2,3,16;
 1/18=20,19=15,53=2032,62=2,63=103/22;
 3/5=7,6=11,11=9,16=1,25=1,30=1,71=1,82=7/1,2,3;
 4//1;
 5/5=2,13=1,38=5/2;
 8/6=4,10=1/1;
 9/15=2,16=-3/6;
 10/5=1,31=1/2;
 6/7=2,8=2,9=2,10=2/1;
 7/7=1,12=2,30=1,33=-1/1,2,3,16;
 1/18=20,19=15,53=1022,62=2,63=104/22;
 3/5=7,6=11,11=9,16=1,25=1,30=1,71=1,82=7/1,2,3;
 4//1;
 5/5=2,13=1,38=5/2;
 8/6=4,10=1/1;
 9/15=2,16=-3/6;
 10/5=1,31=1/2;
 6/7=2,8=2,9=2,10=2/1;
 7/7=1,12=2,30=1,33=-1/1,2,3,16;
 1/18=20,19=15,53=5015,62=2,63=105/22;
 7/9=1,44=-1/16;
 1/18=20,19=15,62=2,63=100/3(2);
 2/9=110,15=1/2;
 99//99;
 2/9=110,15=1/2;
 1/18=20,19=15,53=5173,62=2,63=100/22;
 3/5=7,6=11,11=9,16=1,25=1,30=1,71=1,82=7/1,2,3;
 4/5=5,16=3/1;
 5/5=2,13=1,38=5/2;
 8/6=4,10=1/1;
 9/15=2,16=-3/6;
 10/5=1,31=1/2;
 7/7=1,12=2,30=1,33=-1/1,2,3,16;
 1/18=20,19=15,53=4053,62=2,63=101/22;
 3/5=7,6=11,11=9,16=1,25=1,30=1,71=1,82=7/1,2,3;
 4/5=5,16=3/1;
 5/5=2,13=1,38=5/2;
 8/6=4,10=1/1;
 9/15=2,16=-3/6;
 10/5=1,31=1/2;
 7/7=1,12=2,30=1,33=-1/1,2,3,16;
 1/18=20,19=15,53=3043,62=2,63=102/22;
 3/5=7,6=11,11=9,16=1,25=1,30=1,71=1,82=7/1,2,3;
 4/5=5,16=3/1;
 5/5=2,13=1,38=5/2;
 8/6=4,10=1/1;
 9/15=2,16=-3/6;
 10/5=1,31=1/2;
 7/7=1,12=2,30=1,33=-1/1,2,3,16;
 1/18=20,19=15,53=2033,62=2,63=103/22;
 3/5=7,6=11,11=9,16=1,25=1,30=1,71=1,82=7/1,2,3;
 4/5=5,16=3/1;
 5/5=2,13=1,38=5/2;
 8/6=4,10=1/1;
 9/15=2,16=-3/6;
 10/5=1,31=1/2;
 7/7=1,12=2,30=1,33=-1/1,2,3,16;
 1/18=20,19=15,53=1024,62=2,63=104/22;
 3/5=7,6=11,11=9,16=1,25=1,30=1,71=1,82=7/1,2,3;
 4/5=5,16=3/1;
 5/5=2,13=1,38=5/2;
 8/6=4,10=1/1;
 9/15=2,16=-3/6;
 10/5=1,31=1/2;
 7/7=1,12=2,30=1,33=-1/1,2,3,16;
 1/18=20,19=15,53=5015,62=2,63=105/22;
 7/9=1,44=-1/16;
 1/18=20,19=15,62=2,63=100/3(-43);
 2/9=110,15=1/2;
 6/7=2,8=2,9=2,10=2/1;
 99//99;
 Leave Link    1 at Tue Sep 10 11:19:34 2019, MaxMem= 4294967296 cpu:       0.3
 (Enter /opt/g09gh/gaussian/g09/l101.exe)
 ---
 Opt
 ---
 Symbolic Z-matrix:
 Charge = -1 Multiplicity = 1 in supermolecule
 Charge = -1 Multiplicity = 1 in fragment  1.
 Charge =  0 Multiplicity = 1 in fragment  2.
 C(Fragment=1)         1.53779  -0.86588  -2.31938 
 H(Fragment=1)         0.46238  -1.0051   -2.18907 
 H(Fragment=1)         1.8458   -1.26615  -3.28366 
 C(Fragment=1)         2.3165   -1.53177  -1.15259 
 O(Fragment=1)         3.27324  -2.27139  -1.47363 
 O(Fragment=1)         1.89272  -1.22769  -0.00607 
 H(Fragment=1)         1.72259   0.20998  -2.30216 
 C(Fragment=2)        -0.85163   0.7916    1.99582 
 C(Fragment=2)        -0.63483   0.46794   0.65579 
 C(Fragment=2)        -1.5362    0.93139  -0.30413 
 C(Fragment=2)        -2.6397    1.69842   0.07223 
 C(Fragment=2)        -2.84891   2.01482   1.41445 
 C(Fragment=2)        -1.9503    1.5605    2.37813 
 H(Fragment=2)         0.23161  -0.13131   0.36958 
 H(Fragment=2)        -1.37116   0.69056  -1.34622 
 H(Fragment=2)        -3.33451   2.05288  -0.67899 
 H(Fragment=2)        -3.70399   2.61186   1.70526 
 H(Fragment=2)        -2.10708   1.80361   3.42162 
 H(Fragment=2)        -0.15508   0.43416   2.74312 
 
 NAtoms=     19 NQM=     19 NQMF=      0 NMic=      0 NMicF=      0 NTot=     19.
                    Isotopes and Nuclear Properties:
 (Nuclear quadrupole moments (NQMom) in fm**2, nuclear magnetic moments (NMagM)
  in nuclear magnetons)

  Atom         1           2           3           4           5           6           7           8           9          10
 IAtWgt=          12           1           1          12          16          16           1          12          12          12
 AtmWgt=  12.0000000   1.0078250   1.0078250  12.0000000  15.9949146  15.9949146   1.0078250  12.0000000  12.0000000  12.0000000
 NucSpn=           0           1           1           0           0           0           1           0           0           0
 AtZEff=   0.0000000   0.0000000   0.0000000   0.0000000   0.0000000   0.0000000   0.0000000   0.0000000   0.0000000   0.0000000
 NQMom=    0.0000000   0.0000000   0.0000000   0.0000000   0.0000000   0.0000000   0.0000000   0.0000000   0.0000000   0.0000000
 NMagM=    0.0000000   2.7928460   2.7928460   0.0000000   0.0000000   0.0000000   2.7928460   0.0000000   0.0000000   0.0000000

  Atom        11          12          13          14          15          16          17          18          19
 IAtWgt=          12          12          12           1           1           1           1           1           1
 AtmWgt=  12.0000000  12.0000000  12.0000000   1.0078250   1.0078250   1.0078250   1.0078250   1.0078250   1.0078250
 NucSpn=           0           0           0           1           1           1           1           1           1
 AtZEff=   0.0000000   0.0000000   0.0000000   0.0000000   0.0000000   0.0000000   0.0000000   0.0000000   0.0000000
 NQMom=    0.0000000   0.0000000   0.0000000   0.0000000   0.0000000   0.0000000   0.0000000   0.0000000   0.0000000
 NMagM=    0.0000000   0.0000000   0.0000000   2.7928460   2.7928460   2.7928460   2.7928460   2.7928460   2.7928460
 Leave Link  101 at Tue Sep 10 11:19:34 2019, MaxMem= 4294967296 cpu:       0.7
 (Enter /opt/g09gh/gaussian/g09/l103.exe)

 GradGradGradGradGradGradGradGradGradGradGradGradGradGradGradGradGradGrad
 Berny optimization.
 Initialization pass.
                           ----------------------------
                           !    Initial Parameters    !
                           ! (Angstroms and Degrees)  !
 --------------------------                            --------------------------
 ! Name  Definition              Value          Derivative Info.                !
 --------------------------------------------------------------------------------
 ! R1    R(1,2)                  1.0922         estimate D2E/DX2                !
 ! R2    R(1,3)                  1.0885         estimate D2E/DX2                !
 ! R3    R(1,4)                  1.5528         estimate D2E/DX2                !
 ! R4    R(1,7)                  1.0918         estimate D2E/DX2                !
 ! R5    R(4,5)                  1.2512         estimate D2E/DX2                !
 ! R6    R(4,6)                  1.2596         estimate D2E/DX2                !
 ! R7    R(6,14)                 2.0255         estimate D2E/DX2                !
 ! R8    R(8,9)                  1.3955         estimate D2E/DX2                !
 ! R9    R(8,13)                 1.3944         estimate D2E/DX2                !
 ! R10   R(8,19)                 1.0823         estimate D2E/DX2                !
 ! R11   R(9,10)                 1.396          estimate D2E/DX2                !
 ! R12   R(9,14)                 1.0917         estimate D2E/DX2                !
 ! R13   R(10,11)                1.3956         estimate D2E/DX2                !
 ! R14   R(10,15)                1.0822         estimate D2E/DX2                !
 ! R15   R(11,12)                1.3948         estimate D2E/DX2                !
 ! R16   R(11,16)                1.0829         estimate D2E/DX2                !
 ! R17   R(12,13)                1.3938         estimate D2E/DX2                !
 ! R18   R(12,17)                1.0827         estimate D2E/DX2                !
 ! R19   R(13,18)                1.0829         estimate D2E/DX2                !
 ! A1    A(2,1,3)              109.7206         estimate D2E/DX2                !
 ! A2    A(2,1,4)              110.455          estimate D2E/DX2                !
 ! A3    A(2,1,7)              106.8818         estimate D2E/DX2                !
 ! A4    A(3,1,4)              111.4725         estimate D2E/DX2                !
 ! A5    A(3,1,7)              109.1737         estimate D2E/DX2                !
 ! A6    A(4,1,7)              109.0167         estimate D2E/DX2                !
 ! A7    A(1,4,5)              116.3697         estimate D2E/DX2                !
 ! A8    A(1,4,6)              114.3128         estimate D2E/DX2                !
 ! A9    A(5,4,6)              129.3111         estimate D2E/DX2                !
 ! A10   A(4,6,14)             125.1288         estimate D2E/DX2                !
 ! A11   A(9,8,13)             120.9018         estimate D2E/DX2                !
 ! A12   A(9,8,19)             119.1064         estimate D2E/DX2                !
 ! A13   A(13,8,19)            119.9914         estimate D2E/DX2                !
 ! A14   A(8,9,10)             118.8808         estimate D2E/DX2                !
 ! A15   A(8,9,14)             120.1569         estimate D2E/DX2                !
 ! A16   A(10,9,14)            120.9605         estimate D2E/DX2                !
 ! A17   A(9,10,11)            120.5028         estimate D2E/DX2                !
 ! A18   A(9,10,15)            119.3266         estimate D2E/DX2                !
 ! A19   A(11,10,15)           120.1705         estimate D2E/DX2                !
 ! A20   A(10,11,12)           120.1851         estimate D2E/DX2                !
 ! A21   A(10,11,16)           120.0091         estimate D2E/DX2                !
 ! A22   A(12,11,16)           119.8054         estimate D2E/DX2                !
 ! A23   A(11,12,13)           119.6504         estimate D2E/DX2                !
 ! A24   A(11,12,17)           120.1356         estimate D2E/DX2                !
 ! A25   A(13,12,17)           120.214          estimate D2E/DX2                !
 ! A26   A(8,13,12)            119.8781         estimate D2E/DX2                !
 ! A27   A(8,13,18)            120.138          estimate D2E/DX2                !
 ! A28   A(12,13,18)           119.9838         estimate D2E/DX2                !
 ! A29   L(6,14,9,8,-1)        175.3743         estimate D2E/DX2                !
 ! A30   L(6,14,9,8,-2)        178.911          estimate D2E/DX2                !
 ! D1    D(2,1,4,5)            131.2026         estimate D2E/DX2                !
 ! D2    D(2,1,4,6)            -49.6357         estimate D2E/DX2                !
 ! D3    D(3,1,4,5)              8.9454         estimate D2E/DX2                !
 ! D4    D(3,1,4,6)           -171.8928         estimate D2E/DX2                !
 ! D5    D(7,1,4,5)           -111.6434         estimate D2E/DX2                !
 ! D6    D(7,1,4,6)             67.5184         estimate D2E/DX2                !
 ! D7    D(1,4,6,14)             6.2115         estimate D2E/DX2                !
 ! D8    D(5,4,6,14)          -174.7591         estimate D2E/DX2                !
 ! D9    D(4,6,9,8)           -174.0867         estimate D2E/DX2                !
 ! D10   D(4,6,9,10)             4.8821         estimate D2E/DX2                !
 ! D11   D(13,8,9,10)            0.2253         estimate D2E/DX2                !
 ! D12   D(13,8,9,14)          179.7447         estimate D2E/DX2                !
 ! D13   D(19,8,9,10)          179.9981         estimate D2E/DX2                !
 ! D14   D(19,8,9,14)           -0.4825         estimate D2E/DX2                !
 ! D15   D(9,8,13,12)            0.0411         estimate D2E/DX2                !
 ! D16   D(9,8,13,18)          179.9458         estimate D2E/DX2                !
 ! D17   D(19,8,13,12)        -179.7297         estimate D2E/DX2                !
 ! D18   D(19,8,13,18)           0.175          estimate D2E/DX2                !
 ! D19   D(8,9,10,11)           -0.3922         estimate D2E/DX2                !
 ! D20   D(8,9,10,15)          179.5702         estimate D2E/DX2                !
 ! D21   D(14,9,10,11)        -179.9076         estimate D2E/DX2                !
 ! D22   D(14,9,10,15)           0.0548         estimate D2E/DX2                !
 ! D23   D(9,10,11,12)           0.2948         estimate D2E/DX2                !
 ! D24   D(9,10,11,16)        -179.9321         estimate D2E/DX2                !
 ! D25   D(15,10,11,12)       -179.6673         estimate D2E/DX2                !
 ! D26   D(15,10,11,16)          0.1058         estimate D2E/DX2                !
 ! D27   D(10,11,12,13)         -0.0234         estimate D2E/DX2                !
 ! D28   D(10,11,12,17)        179.8574         estimate D2E/DX2                !
 ! D29   D(16,11,12,13)       -179.7969         estimate D2E/DX2                !
 ! D30   D(16,11,12,17)          0.0838         estimate D2E/DX2                !
 ! D31   D(11,12,13,8)          -0.143          estimate D2E/DX2                !
 ! D32   D(11,12,13,18)        179.9521         estimate D2E/DX2                !
 ! D33   D(17,12,13,8)         179.9763         estimate D2E/DX2                !
 ! D34   D(17,12,13,18)          0.0715         estimate D2E/DX2                !
 --------------------------------------------------------------------------------
 Trust Radius=3.00D-01 FncErr=1.00D-07 GrdErr=1.00D-07
 Number of steps in this run=  93 maximum allowed number of steps= 114.
 GradGradGradGradGradGradGradGradGradGradGradGradGradGradGradGradGradGrad

 Leave Link  103 at Tue Sep 10 11:19:34 2019, MaxMem= 4294967296 cpu:       0.1
 (Enter /opt/g09gh/gaussian/g09/l202.exe)
                          Input orientation:                          
 ---------------------------------------------------------------------
 Center     Atomic      Atomic             Coordinates (Angstroms)
 Number     Number       Type             X           Y           Z
 ---------------------------------------------------------------------
      1          6           0        1.537786   -0.865883   -2.319380
      2          1           0        0.462376   -1.005096   -2.189067
      3          1           0        1.845795   -1.266151   -3.283663
      4          6           0        2.316498   -1.531765   -1.152585
      5          8           0        3.273238   -2.271387   -1.473627
      6          8           0        1.892722   -1.227694   -0.006074
      7          1           0        1.722590    0.209979   -2.302160
      8          6           0       -0.851634    0.791599    1.995817
      9          6           0       -0.634830    0.467938    0.655787
     10          6           0       -1.536204    0.931389   -0.304131
     11          6           0       -2.639698    1.698416    0.072230
     12          6           0       -2.848913    2.014822    1.414446
     13          6           0       -1.950295    1.560499    2.378130
     14          1           0        0.231608   -0.131305    0.369584
     15          1           0       -1.371158    0.690555   -1.346220
     16          1           0       -3.334513    2.052877   -0.678993
     17          1           0       -3.703987    2.611862    1.705264
     18          1           0       -2.107079    1.803614    3.421624
     19          1           0       -0.155076    0.434162    2.743118
 ---------------------------------------------------------------------
                    Distance matrix (angstroms):
                    1          2          3          4          5
     1  C    0.000000
     2  H    1.092185   0.000000
     3  H    1.088543   1.783294   0.000000
     4  C    1.552804   2.188480   2.198546   0.000000
     5  O    2.387998   3.164853   2.514821   1.251183   0.000000
     6  O    2.368179   2.619332   3.278151   1.259576   2.269104
     7  H    1.091755   1.754234   1.776932   2.169775   3.041078
     8  C    5.203604   4.740041   6.275617   5.034632   6.199475
     9  C    3.918030   3.386279   4.967880   3.997419   5.226022
    10  C    4.091556   3.361143   5.014450   4.650840   5.895441
    11  C    5.454063   4.695243   6.338006   6.041367   7.287786
    12  C    6.440733   5.750639   7.407921   6.771218   8.012071
    13  C    6.334085   5.767369   7.379441   6.342994   7.536888
    14  H    3.078349   2.713570   4.152070   2.936844   4.150770
    15  H    3.439694   2.635805   4.234521   4.309873   5.509968
    16  H    5.911796   5.103713   6.681006   6.708791   7.936818
    17  H    7.467841   6.753279   8.410021   7.847495   9.090277
    18  H    7.305504   6.780177   8.367171   7.184440   8.337681
    19  H    5.494068   5.174858   6.573936   5.014982   6.070772
                    6          7          8          9         10
     6  O    0.000000
     7  H    2.714380   0.000000
     8  C    3.951785   5.043562   0.000000
     9  C    3.114763   3.791230   1.395507   0.000000
    10  C    4.063005   3.890024   2.403734   1.395960   0.000000
    11  C    5.395469   5.184856   2.778431   2.423656   1.395592
    12  C    5.917338   6.161920   2.413170   2.805455   2.418789
    13  C    5.312930   6.100746   1.394427   2.427056   2.785996
    14  H    2.025460   3.078590   2.160972   1.091659   2.169878
    15  H    4.016041   3.273538   3.383685   2.144707   1.082216
    16  H    6.207975   5.621853   3.861362   3.403228   2.152248
    17  H    6.999573   7.160742   3.396130   3.888128   3.400138
    18  H    6.077528   7.068786   2.152497   3.406083   3.868840
    19  H    3.809632   5.388016   1.082318   2.142021   3.382377
                   11         12         13         14         15
    11  C    0.000000
    12  C    1.394786   0.000000
    13  C    2.410700   1.393776   0.000000
    14  H    3.417703   3.897077   3.414258   0.000000
    15  H    2.153364   3.399812   3.868202   2.487629   0.000000
    16  H    1.082934   2.149359   3.391828   4.311309   2.481104
    17  H    2.152648   1.082674   2.152568   4.979750   4.294772
    18  H    3.393109   2.150277   1.082851   4.304453   4.951042
    19  H    3.860742   3.394203   2.150503   2.470413   4.274024
                   16         17         18         19
    16  H    0.000000
    17  H    2.476622   0.000000
    18  H    4.287632   2.479772   0.000000
    19  H    4.943673   4.291187   2.479130   0.000000
 Symmetry turned off by external request.
 Stoichiometry    C8H9O2(1-)
 Framework group  C1[X(C8H9O2)]
 Deg. of freedom    51
 Full point group                 C1      NOp   1
 Rotational constants (GHZ):      3.6726635      0.4621799      0.4122543
 Leave Link  202 at Tue Sep 10 11:19:35 2019, MaxMem= 4294967296 cpu:       0.1
 (Enter /opt/g09gh/gaussian/g09/l122.exe)
 Restoring MOs from calculation   1 to rwf and chk.
 Leave Link  122 at Tue Sep 10 11:19:35 2019, MaxMem= 4294967296 cpu:       0.1
 (Enter /opt/g09gh/gaussian/g09/l301.exe)
 Standard basis: CC-pVTZ (5D, 7F)
 Ernie: Thresh=  0.10000D-02 Tol=  0.10000D-05 Strict=F.
 Ernie:  30 primitive shells out of 332 were deleted.
 Integral buffers will be    131072 words long.
 Raffenetti 1 integral format.
 Two-electron integral symmetry is turned off.
   426 basis functions,   673 primitive gaussians,   485 cartesian basis functions
    37 alpha electrons       37 beta electrons
       nuclear repulsion energy       448.8239912371 Hartrees.
 IExCor=    0 DFT=F Ex=HF Corr=None ExCW=0 ScaHFX=  1.000000
 ScaDFX=  1.000000  1.000000  1.000000  1.000000 ScalE2=  1.000000  1.000000
 IRadAn=      0 IRanWt=     -1 IRanGd=            0 ICorTp=0
 NAtoms=   19 NActive=   19 NUniq=   19 SFac= 7.50D-01 NAtFMM=   80 NAOKFM=F Big=F
 Leave Link  301 at Tue Sep 10 11:19:35 2019, MaxMem= 4294967296 cpu:       0.6
 (Enter /opt/g09gh/gaussian/g09/l302.exe)
 NPDir=0 NMtPBC=     1 NCelOv=     1 NCel=       1 NClECP=     1 NCelD=      1
         NCelK=      1 NCelE2=     1 NClLst=     1 CellRange=     0.0.
 One-electron integrals computed using PRISM.
 NBasis=   426 RedAO= T  NBF=   426
 NBsUse=   426 1.00D-06 NBFU=   426
 Leave Link  302 at Tue Sep 10 11:19:35 2019, MaxMem= 4294967296 cpu:       3.4
 (Enter /opt/g09gh/gaussian/g09/l303.exe)
 DipDrv:  MaxL=1.
 Leave Link  303 at Tue Sep 10 11:19:35 2019, MaxMem= 4294967296 cpu:       0.6
 (Enter /opt/g09gh/gaussian/g09/l401.exe)
 Harris functional with IExCor=  205 diagonalized for initial guess.
 ExpMin= 1.03D-01 ExpMax= 1.53D+04 ExpMxC= 5.22D+02 IAcc=1 IRadAn=         1 AccDes= 0.00D+00
 HarFok:  IExCor=  205 AccDes= 0.00D+00 IRadAn=         1 IDoV= 1
 ScaDFX=  1.000000  1.000000  1.000000  1.000000
 FoFCou: FMM=F IPFlag=           0 FMFlag=      100000 FMFlg1=           0
         NFxFlg=           0 DoJE=T BraDBF=F KetDBF=T FulRan=T
         Omega=  0.000000  0.000000  1.000000  0.000000  0.000000 ICntrl=     500 IOpCl=  0
         NMat0=    1 NMatS0=    1 NMatT0=    0 NMatD0=    1 NMtDS0=    0 NMtDT0=    0
         I1Cent=           4 NGrid=           0.
 Symmetry not used in FoFCou.
 Harris En= -458.954431693130    
 Leave Link  401 at Tue Sep 10 11:19:36 2019, MaxMem= 4294967296 cpu:       5.9
 (Enter /opt/g09gh/gaussian/g09/l502.exe)
 Closed shell SCF:
 Requested convergence on RMS density matrix=1.00D-08 within  64 cycles.
 Requested convergence on MAX density matrix=1.00D-06.
 Requested convergence on             energy=1.00D-06.
 No special actions if energy rises.
 Using DIIS extrapolation, IDIIS=  1040.
 Two-electron integral symmetry not used.
 IEnd=      718041 IEndB=      718041 NGot=  4294967296 MDV=  4294489190
 LenX=  4294489190 LenY=  4294253480
 Fock matrices will be formed incrementally for  20 cycles.
 Integral accuracy reduced to 1.0D-05 until final iterations.

 Cycle   1  Pass 0  IDiag  1:
 FoFCou: FMM=F IPFlag=           0 FMFlag=      100000 FMFlg1=           0
         NFxFlg=           0 DoJE=F BraDBF=F KetDBF=F FulRan=T
         Omega=  0.000000  0.000000  1.000000  0.000000  0.000000 ICntrl=       0 IOpCl=  0
         NMat0=    1 NMatS0=    1 NMatT0=    0 NMatD0=    1 NMtDS0=    0 NMtDT0=    0
         I1Cent=           0 NGrid=           0.
 Symmetry not used in FoFCou.
 E= -457.511095159616    
 DIIS: error= 6.02D-02 at cycle   1 NSaved=   1.
 NSaved= 1 IEnMin= 1 EnMin= -457.511095159616     IErMin= 1 ErrMin= 6.02D-02
 ErrMax= 6.02D-02 EMaxC= 1.00D-01 BMatC= 1.07D+00 BMatP= 1.07D+00
 IDIUse=3 WtCom= 3.98D-01 WtEn= 6.02D-01
 Coeff-Com:  0.100D+01
 Coeff-En:   0.100D+01
 Coeff:      0.100D+01
 Gap=     0.423 Goal=   None    Shift=    0.000
 GapD=    0.423 DampG=2.000 DampE=0.500 DampFc=1.0000 IDamp=-1.
 RMSDP=2.24D-03 MaxDP=2.06D-01              OVMax= 1.58D-01

 Cycle   2  Pass 0  IDiag  1:
 RMSU=  1.58D-03    CP:  9.95D-01
 E= -458.000128175805     Delta-E=       -0.489033016189 Rises=F Damp=F
 DIIS: error= 2.94D-02 at cycle   2 NSaved=   2.
 NSaved= 2 IEnMin= 2 EnMin= -458.000128175805     IErMin= 2 ErrMin= 2.94D-02
 ErrMax= 2.94D-02 EMaxC= 1.00D-01 BMatC= 1.41D-01 BMatP= 1.07D+00
 IDIUse=3 WtCom= 7.06D-01 WtEn= 2.94D-01
 Coeff-Com:  0.203D+00 0.797D+00
 Coeff-En:   0.000D+00 0.100D+01
 Coeff:      0.144D+00 0.856D+00
 Gap=     0.471 Goal=   None    Shift=    0.000
 RMSDP=1.10D-03 MaxDP=1.38D-01 DE=-4.89D-01 OVMax= 6.08D-02

 Cycle   3  Pass 0  IDiag  1:
 RMSU=  3.90D-04    CP:  1.00D+00  5.75D-01
 E= -458.094930142505     Delta-E=       -0.094801966700 Rises=F Damp=F
 DIIS: error= 6.10D-03 at cycle   3 NSaved=   3.
 NSaved= 3 IEnMin= 3 EnMin= -458.094930142505     IErMin= 3 ErrMin= 6.10D-03
 ErrMax= 6.10D-03 EMaxC= 1.00D-01 BMatC= 1.74D-02 BMatP= 1.41D-01
 IDIUse=3 WtCom= 9.39D-01 WtEn= 6.10D-02
 Coeff-Com: -0.207D-01 0.230D+00 0.790D+00
 Coeff-En:   0.000D+00 0.000D+00 0.100D+01
 Coeff:     -0.194D-01 0.216D+00 0.803D+00
 Gap=     0.431 Goal=   None    Shift=    0.000
 RMSDP=1.70D-04 MaxDP=7.90D-03 DE=-9.48D-02 OVMax= 2.09D-02

 Cycle   4  Pass 0  IDiag  1:
 RMSU=  8.28D-05    CP:  9.99D-01  6.29D-01  9.77D-01
 E= -458.106732646318     Delta-E=       -0.011802503813 Rises=F Damp=F
 DIIS: error= 1.50D-03 at cycle   4 NSaved=   4.
 NSaved= 4 IEnMin= 4 EnMin= -458.106732646318     IErMin= 4 ErrMin= 1.50D-03
 ErrMax= 1.50D-03 EMaxC= 1.00D-01 BMatC= 4.73D-04 BMatP= 1.74D-02
 IDIUse=3 WtCom= 9.85D-01 WtEn= 1.50D-02
 Coeff-Com: -0.886D-02 0.382D-01 0.211D+00 0.759D+00
 Coeff-En:   0.000D+00 0.000D+00 0.000D+00 0.100D+01
 Coeff:     -0.873D-02 0.376D-01 0.208D+00 0.763D+00
 Gap=     0.429 Goal=   None    Shift=    0.000
 RMSDP=4.32D-05 MaxDP=2.57D-03 DE=-1.18D-02 OVMax= 5.47D-03

 Cycle   5  Pass 0  IDiag  1:
 RMSU=  2.26D-05    CP:  9.99D-01  6.22D-01  1.02D+00  9.69D-01
 E= -458.107144010343     Delta-E=       -0.000411364025 Rises=F Damp=F
 DIIS: error= 5.72D-04 at cycle   5 NSaved=   5.
 NSaved= 5 IEnMin= 5 EnMin= -458.107144010343     IErMin= 5 ErrMin= 5.72D-04
 ErrMax= 5.72D-04 EMaxC= 1.00D-01 BMatC= 3.74D-05 BMatP= 4.73D-04
 IDIUse=3 WtCom= 9.94D-01 WtEn= 5.72D-03
 Coeff-Com:  0.807D-03-0.159D-01-0.529D-01 0.103D+00 0.965D+00
 Coeff-En:   0.000D+00 0.000D+00 0.000D+00 0.000D+00 0.100D+01
 Coeff:      0.802D-03-0.158D-01-0.526D-01 0.102D+00 0.965D+00
 Gap=     0.429 Goal=   None    Shift=    0.000
 RMSDP=2.52D-05 MaxDP=2.29D-03 DE=-4.11D-04 OVMax= 1.85D-03

 Cycle   6  Pass 0  IDiag  1:
 RMSU=  6.91D-06    CP:  9.99D-01  6.16D-01  1.04D+00  1.09D+00  1.21D+00
 E= -458.107192434076     Delta-E=       -0.000048423732 Rises=F Damp=F
 DIIS: error= 1.06D-04 at cycle   6 NSaved=   6.
 NSaved= 6 IEnMin= 6 EnMin= -458.107192434076     IErMin= 6 ErrMin= 1.06D-04
 ErrMax= 1.06D-04 EMaxC= 1.00D-01 BMatC= 2.19D-06 BMatP= 3.74D-05
 IDIUse=3 WtCom= 9.99D-01 WtEn= 1.06D-03
 Coeff-Com:  0.841D-03-0.554D-02-0.241D-01-0.512D-01 0.628D-01 0.102D+01
 Coeff-En:   0.000D+00 0.000D+00 0.000D+00 0.000D+00 0.000D+00 0.100D+01
 Coeff:      0.840D-03-0.553D-02-0.241D-01-0.511D-01 0.627D-01 0.102D+01
 Gap=     0.429 Goal=   None    Shift=    0.000
 RMSDP=9.38D-06 MaxDP=7.15D-04 DE=-4.84D-05 OVMax= 7.77D-04

 Initial convergence to 1.0D-05 achieved.  Increase integral accuracy.
 Cycle   7  Pass 1  IDiag  1:
 E= -458.107199729766     Delta-E=       -0.000007295690 Rises=F Damp=F
 DIIS: error= 4.59D-05 at cycle   1 NSaved=   1.
 NSaved= 1 IEnMin= 1 EnMin= -458.107199729766     IErMin= 1 ErrMin= 4.59D-05
 ErrMax= 4.59D-05 EMaxC= 1.00D-01 BMatC= 6.71D-07 BMatP= 6.71D-07
 IDIUse=1 WtCom= 1.00D+00 WtEn= 0.00D+00
 Coeff-Com:  0.100D+01
 Coeff:      0.100D+01
 Gap=     0.429 Goal=   None    Shift=    0.000
 RMSDP=9.38D-06 MaxDP=7.15D-04 DE=-7.30D-06 OVMax= 2.86D-04

 Cycle   8  Pass 1  IDiag  1:
 RMSU=  3.41D-05    CP:  1.00D+00
 E= -458.107200528763     Delta-E=       -0.000000798997 Rises=F Damp=F
 DIIS: error= 3.14D-05 at cycle   2 NSaved=   2.
 NSaved= 2 IEnMin= 2 EnMin= -458.107200528763     IErMin= 2 ErrMin= 3.14D-05
 ErrMax= 3.14D-05 EMaxC= 1.00D-01 BMatC= 1.13D-07 BMatP= 6.71D-07
 IDIUse=1 WtCom= 1.00D+00 WtEn= 0.00D+00
 Coeff-Com:  0.128D+00 0.872D+00
 Coeff:      0.128D+00 0.872D+00
 Gap=     0.429 Goal=   None    Shift=    0.000
 RMSDP=2.47D-06 MaxDP=1.02D-04 DE=-7.99D-07 OVMax= 1.93D-04

 Cycle   9  Pass 1  IDiag  1:
 RMSU=  7.65D-07    CP:  1.00D+00  1.05D+00
 E= -458.107200723647     Delta-E=       -0.000000194884 Rises=F Damp=F
 DIIS: error= 2.32D-05 at cycle   3 NSaved=   3.
 NSaved= 3 IEnMin= 3 EnMin= -458.107200723647     IErMin= 3 ErrMin= 2.32D-05
 ErrMax= 2.32D-05 EMaxC= 1.00D-01 BMatC= 3.54D-08 BMatP= 1.13D-07
 IDIUse=1 WtCom= 1.00D+00 WtEn= 0.00D+00
 Coeff-Com: -0.819D-01 0.210D+00 0.871D+00
 Coeff:     -0.819D-01 0.210D+00 0.871D+00
 Gap=     0.429 Goal=   None    Shift=    0.000
 RMSDP=9.31D-07 MaxDP=3.68D-05 DE=-1.95D-07 OVMax= 1.28D-04

 Cycle  10  Pass 1  IDiag  1:
 RMSU=  3.32D-07    CP:  1.00D+00  1.06D+00  1.32D+00
 E= -458.107200819120     Delta-E=       -0.000000095473 Rises=F Damp=F
 DIIS: error= 1.35D-05 at cycle   4 NSaved=   4.
 NSaved= 4 IEnMin= 4 EnMin= -458.107200819120     IErMin= 4 ErrMin= 1.35D-05
 ErrMax= 1.35D-05 EMaxC= 1.00D-01 BMatC= 1.03D-08 BMatP= 3.54D-08
 IDIUse=1 WtCom= 1.00D+00 WtEn= 0.00D+00
 Coeff-Com: -0.975D-02-0.352D+00-0.189D+00 0.155D+01
 Coeff:     -0.975D-02-0.352D+00-0.189D+00 0.155D+01
 Gap=     0.429 Goal=   None    Shift=    0.000
 RMSDP=6.88D-07 MaxDP=2.22D-05 DE=-9.55D-08 OVMax= 1.79D-04

 Cycle  11  Pass 1  IDiag  1:
 RMSU=  2.26D-07    CP:  1.00D+00  1.06D+00  1.80D+00  1.65D+00
 E= -458.107200873357     Delta-E=       -0.000000054237 Rises=F Damp=F
 DIIS: error= 5.26D-06 at cycle   5 NSaved=   5.
 NSaved= 5 IEnMin= 5 EnMin= -458.107200873357     IErMin= 5 ErrMin= 5.26D-06
 ErrMax= 5.26D-06 EMaxC= 1.00D-01 BMatC= 1.35D-09 BMatP= 1.03D-08
 IDIUse=1 WtCom= 1.00D+00 WtEn= 0.00D+00
 Coeff-Com:  0.113D-01-0.138D+00-0.193D+00 0.430D+00 0.890D+00
 Coeff:      0.113D-01-0.138D+00-0.193D+00 0.430D+00 0.890D+00
 Gap=     0.429 Goal=   None    Shift=    0.000
 RMSDP=2.10D-07 MaxDP=7.88D-06 DE=-5.42D-08 OVMax= 5.27D-05

 Cycle  12  Pass 1  IDiag  1:
 RMSU=  5.72D-08    CP:  1.00D+00  1.06D+00  1.89D+00  1.85D+00  1.31D+00
 E= -458.107200878758     Delta-E=       -0.000000005401 Rises=F Damp=F
 DIIS: error= 2.21D-06 at cycle   6 NSaved=   6.
 NSaved= 6 IEnMin= 6 EnMin= -458.107200878758     IErMin= 6 ErrMin= 2.21D-06
 ErrMax= 2.21D-06 EMaxC= 1.00D-01 BMatC= 1.65D-10 BMatP= 1.35D-09
 IDIUse=1 WtCom= 1.00D+00 WtEn= 0.00D+00
 Coeff-Com: -0.392D-02 0.117D+00 0.116D+00-0.427D+00-0.428D+00 0.162D+01
 Coeff:     -0.392D-02 0.117D+00 0.116D+00-0.427D+00-0.428D+00 0.162D+01
 Gap=     0.429 Goal=   None    Shift=    0.000
 RMSDP=1.11D-07 MaxDP=3.40D-06 DE=-5.40D-09 OVMax= 2.57D-05

 Cycle  13  Pass 1  IDiag  1:
 RMSU=  3.98D-08    CP:  1.00D+00  1.06D+00  1.87D+00  1.87D+00  1.50D+00
                    CP:  1.78D+00
 E= -458.107200879627     Delta-E=       -0.000000000869 Rises=F Damp=F
 DIIS: error= 3.87D-07 at cycle   7 NSaved=   7.
 NSaved= 7 IEnMin= 7 EnMin= -458.107200879627     IErMin= 7 ErrMin= 3.87D-07
 ErrMax= 3.87D-07 EMaxC= 1.00D-01 BMatC= 1.99D-11 BMatP= 1.65D-10
 IDIUse=1 WtCom= 1.00D+00 WtEn= 0.00D+00
 Coeff-Com: -0.224D-02 0.482D-01 0.503D-01-0.162D+00-0.213D+00 0.472D+00
 Coeff-Com:  0.807D+00
 Coeff:     -0.224D-02 0.482D-01 0.503D-01-0.162D+00-0.213D+00 0.472D+00
 Coeff:      0.807D+00
 Gap=     0.429 Goal=   None    Shift=    0.000
 RMSDP=2.28D-08 MaxDP=5.40D-07 DE=-8.69D-10 OVMax= 4.12D-06

 Cycle  14  Pass 1  IDiag  1:
 RMSU=  6.73D-09    CP:  1.00D+00  1.06D+00  1.87D+00  1.87D+00  1.50D+00
                    CP:  1.91D+00  1.22D+00
 E= -458.107200879675     Delta-E=       -0.000000000047 Rises=F Damp=F
 DIIS: error= 1.68D-07 at cycle   8 NSaved=   8.
 NSaved= 8 IEnMin= 8 EnMin= -458.107200879675     IErMin= 8 ErrMin= 1.68D-07
 ErrMax= 1.68D-07 EMaxC= 1.00D-01 BMatC= 2.63D-12 BMatP= 1.99D-11
 IDIUse=1 WtCom= 1.00D+00 WtEn= 0.00D+00
 Coeff-Com:  0.749D-03-0.205D-01-0.231D-01 0.789D-01 0.727D-01-0.271D+00
 Coeff-Com: -0.536D-01 0.122D+01
 Coeff:      0.749D-03-0.205D-01-0.231D-01 0.789D-01 0.727D-01-0.271D+00
 Coeff:     -0.536D-01 0.122D+01
 Gap=     0.429 Goal=   None    Shift=    0.000
 RMSDP=1.62D-08 MaxDP=5.46D-07 DE=-4.74D-11 OVMax= 1.66D-06

 Cycle  15  Pass 1  IDiag  1:
 RMSU=  4.23D-09    CP:  1.00D+00  1.06D+00  1.87D+00  1.88D+00  1.49D+00
                    CP:  1.93D+00  1.30D+00  1.41D+00
 E= -458.107200879679     Delta-E=       -0.000000000004 Rises=F Damp=F
 DIIS: error= 3.55D-08 at cycle   9 NSaved=   9.
 NSaved= 9 IEnMin= 9 EnMin= -458.107200879679     IErMin= 9 ErrMin= 3.55D-08
 ErrMax= 3.55D-08 EMaxC= 1.00D-01 BMatC= 4.30D-13 BMatP= 2.63D-12
 IDIUse=1 WtCom= 1.00D+00 WtEn= 0.00D+00
 Coeff-Com:  0.390D-03-0.835D-02-0.979D-02 0.304D-01 0.344D-01-0.807D-01
 Coeff-Com: -0.139D+00 0.422D-01 0.113D+01
 Coeff:      0.390D-03-0.835D-02-0.979D-02 0.304D-01 0.344D-01-0.807D-01
 Coeff:     -0.139D+00 0.422D-01 0.113D+01
 Gap=     0.429 Goal=   None    Shift=    0.000
 RMSDP=4.13D-09 MaxDP=1.28D-07 DE=-3.75D-12 OVMax= 6.84D-07

 SCF Done:  E(RHF) =  -458.107200880     A.U. after   15 cycles
             Convg  =    0.4126D-08             -V/T =  2.0012
 KE= 4.575537896881D+02 PE=-1.983160172736D+03 EE= 6.186751909314D+02
 Leave Link  502 at Tue Sep 10 11:22:06 2019, MaxMem= 4294967296 cpu:    1196.6
 (Enter /opt/g09gh/gaussian/g09/l801.exe)
 ExpMin= 1.03D-01 ExpMax= 1.53D+04 ExpMxC= 5.22D+02 IAcc=1 IRadAn=         1 AccDes= 0.00D+00
 HarFok:  IExCor=  205 AccDes= 0.00D+00 IRadAn=         1 IDoV=-2
 ScaDFX=  1.000000  1.000000  1.000000  1.000000
 Largest valence mixing into a core orbital is  2.24D-04
 Largest core mixing into a valence orbital is  5.19D-05
 Range of M.O.s used for correlation:    11   426
 NBasis=   426 NAE=    37 NBE=    37 NFC=    10 NFV=     0
 NROrb=    416 NOA=    27 NOB=    27 NVA=   389 NVB=   389

 **** Warning!!: The largest alpha MO coefficient is  0.29395544D+02

 Leave Link  801 at Tue Sep 10 11:22:06 2019, MaxMem= 4294967296 cpu:       0.6
 (Enter /opt/g09gh/gaussian/g09/l906.exe)
 Frozen-core derivative calculation, NFC=  10 NFV=   0.
 FulOut=F Deriv=T AODrv=T NAtomX=    19
   MMem=          93  MDisk=          27 MDiskD=          27
  W3Min=     7644570 MinDsk=    10770925 NBas6D=         485
 NBas2D=      118884    NTT=      117855    LW2=     3500000
    MDV=  4292987986 MDiskM=       44236 NBas2p=       93754
 Fully direct method using O(ONN) memory.
 IMap=   1   2   3   4   5   6   7   8   9  10  11  12  13  14  15  16  17  18  19  20
 IMap=  21  22  23  24  25  26  27  28  29  30  31  32  33  34  35  36  37
 JobTyp=1 Pass  1:  I=  11 to  20 NPSUse=  8 ParTrn=T ParDer=T DoDerP=T.
 JobTyp=1 Pass  2:  I=  21 to  30 NPSUse=  8 ParTrn=T ParDer=T DoDerP=T.
 JobTyp=1 Pass  3:  I=  31 to  37 NPSUse=  8 ParTrn=T ParDer=T DoDerP=T.
 Spin components of T(2) and E(2):
     alpha-alpha T2 =       0.7543958400D-01 E2=     -0.2235350172D+00
     alpha-beta  T2 =       0.4032140028D+00 E2=     -0.1319388836D+01
     beta-beta   T2 =       0.7543958400D-01 E2=     -0.2235350172D+00
 The integrals were generated   3 times.
 ANorm=    0.1246632733D+01
 E2 =    -0.1766458870D+01 EUMP2 =    -0.45987365975001D+03
 Leave Link  906 at Tue Sep 10 11:32:41 2019, MaxMem= 4294967296 cpu:    5084.3
 (Enter /opt/g09gh/gaussian/g09/l1002.exe)
 Minotr:  Closed shell wavefunction.
          Computing MP2/KS-MP2 derivatives.
          Using Z-Vector for PSCF gradient.
          Skipping F1 and S1 gradient terms here.
          IDoAtm=1111111111111111111
          Frozen-core window.
          Direct CPHF calculation.
          Differentiating once with respect to electric field.
                with respect to dipole field.
          Differentiating once with respect to nuclear coordinates.
          Requested convergence is 1.0D-10 RMS, and 1.0D-09 maximum.
          NewPWx=F KeepS1=T KeepF1=T KeepIn=T MapXYZ=F SortEE=F KeepMc=T.
          MDV=    4294967102 using IRadAn=       0.
          Solving linear equations separately, MaxMat=       0.
          There are     1 degrees of freedom in the 1st order CPHF.  IDoFFX=0.
 Symmetry not used in FoFDir.
 MinBra= 0 MaxBra= 3 Meth= 1.
 IRaf=       0 NMat=   1 IRICut=       1 DoRegI=T DoRafI=F ISym2E= 0 JSym2E=0.
 LinEq1:  Iter=  0 NonCon=     1 RMS=2.78D-03 Max=9.89D-02
 AX will form     1 AO Fock derivatives at one time.
 LinEq1:  Iter=  1 NonCon=     1 RMS=7.61D-04 Max=1.58D-02
 LinEq1:  Iter=  2 NonCon=     1 RMS=2.36D-04 Max=6.41D-03
 LinEq1:  Iter=  3 NonCon=     1 RMS=8.96D-05 Max=2.14D-03
 LinEq1:  Iter=  4 NonCon=     1 RMS=3.50D-05 Max=1.20D-03
 LinEq1:  Iter=  5 NonCon=     1 RMS=1.02D-05 Max=4.40D-04
 LinEq1:  Iter=  6 NonCon=     1 RMS=3.45D-06 Max=1.52D-04
 LinEq1:  Iter=  7 NonCon=     1 RMS=1.36D-06 Max=5.24D-05
 LinEq1:  Iter=  8 NonCon=     1 RMS=4.48D-07 Max=1.68D-05
 LinEq1:  Iter=  9 NonCon=     1 RMS=1.84D-07 Max=6.30D-06
 LinEq1:  Iter= 10 NonCon=     1 RMS=4.36D-08 Max=7.33D-07
 LinEq1:  Iter= 11 NonCon=     1 RMS=8.38D-09 Max=1.65D-07
 LinEq1:  Iter= 12 NonCon=     1 RMS=4.60D-09 Max=2.53D-07
 LinEq1:  Iter= 13 NonCon=     1 RMS=1.39D-09 Max=4.28D-08
 LinEq1:  Iter= 14 NonCon=     1 RMS=5.60D-10 Max=1.81D-08
 LinEq1:  Iter= 15 NonCon=     1 RMS=1.91D-10 Max=6.04D-09
 LinEq1:  Iter= 16 NonCon=     1 RMS=4.69D-11 Max=1.77D-09
 LinEq1:  Iter= 17 NonCon=     0 RMS=1.74D-11 Max=7.38D-10
 Linear equations converged to 1.000D-10 1.000D-09 after    17 iterations.
 End of Minotr Frequency-dependent properties file   721 does not exist.
 End of Minotr Frequency-dependent properties file   722 does not exist.
 Leave Link 1002 at Tue Sep 10 11:36:36 2019, MaxMem= 4294967296 cpu:    1878.4
 (Enter /opt/g09gh/gaussian/g09/l601.exe)
 Copying SCF densities to generalized density rwf, IOpCl= 0 IROHF=0.

 **********************************************************************

            Population analysis using the SCF density.

 **********************************************************************

 Alpha  occ. eigenvalues --  -20.28873 -20.28788 -11.13782 -11.13296 -11.13198
 Alpha  occ. eigenvalues --  -11.13121 -11.12182 -11.12110 -11.10624 -11.05192
 Alpha  occ. eigenvalues --   -1.16836  -1.06965  -1.04015  -0.90598  -0.90255
 Alpha  occ. eigenvalues --   -0.80011  -0.71476  -0.71249  -0.60006  -0.53523
 Alpha  occ. eigenvalues --   -0.52050  -0.50839  -0.48012  -0.47522  -0.42735
 Alpha  occ. eigenvalues --   -0.42273  -0.41965  -0.39428  -0.38426  -0.38160
 Alpha  occ. eigenvalues --   -0.36253  -0.32600  -0.23130  -0.22484  -0.21088
 Alpha  occ. eigenvalues --   -0.19981  -0.19754
 Alpha virt. eigenvalues --    0.23165   0.23423   0.23655   0.25827   0.27459
 Alpha virt. eigenvalues --    0.28926   0.30494   0.32898   0.35069   0.37853
 Alpha virt. eigenvalues --    0.42523   0.43490   0.44048   0.44887   0.46275
 Alpha virt. eigenvalues --    0.48088   0.49903   0.51471   0.52643   0.53346
 Alpha virt. eigenvalues --    0.54489   0.55671   0.56321   0.57560   0.59243
 Alpha virt. eigenvalues --    0.60833   0.61874   0.62358   0.64097   0.65614
 Alpha virt. eigenvalues --    0.66287   0.68175   0.68473   0.69014   0.69179
 Alpha virt. eigenvalues --    0.69631   0.71007   0.72201   0.73070   0.73859
 Alpha virt. eigenvalues --    0.74486   0.75830   0.77131   0.77536   0.78540
 Alpha virt. eigenvalues --    0.79458   0.80063   0.81505   0.82269   0.82671
 Alpha virt. eigenvalues --    0.84588   0.84848   0.89624   0.90724   0.92100
 Alpha virt. eigenvalues --    0.94888   0.95376   0.96089   0.96407   0.97781
 Alpha virt. eigenvalues --    0.99334   1.01134   1.02076   1.02976   1.04514
 Alpha virt. eigenvalues --    1.06401   1.07652   1.08134   1.09522   1.10382
 Alpha virt. eigenvalues --    1.11494   1.13443   1.15418   1.16239   1.17281
 Alpha virt. eigenvalues --    1.21111   1.22150   1.23778   1.24382   1.25045
 Alpha virt. eigenvalues --    1.28575   1.31177   1.32099   1.32507   1.33018
 Alpha virt. eigenvalues --    1.33608   1.34714   1.37789   1.39626   1.40091
 Alpha virt. eigenvalues --    1.40386   1.41616   1.42396   1.43781   1.44957
 Alpha virt. eigenvalues --    1.45668   1.46959   1.49727   1.50642   1.52019
 Alpha virt. eigenvalues --    1.56156   1.57627   1.60022   1.60741   1.61520
 Alpha virt. eigenvalues --    1.61629   1.61898   1.63086   1.64460   1.65707
 Alpha virt. eigenvalues --    1.67653   1.68791   1.69840   1.70311   1.71249
 Alpha virt. eigenvalues --    1.71453   1.72069   1.73641   1.74394   1.76656
 Alpha virt. eigenvalues --    1.77763   1.82928   1.83526   1.85912   1.86908
 Alpha virt. eigenvalues --    1.88019   1.91803   1.95771   1.99063   2.01127
 Alpha virt. eigenvalues --    2.05287   2.05742   2.06250   2.16970   2.20161
 Alpha virt. eigenvalues --    2.21815   2.29122   2.29949   2.33886   2.36792
 Alpha virt. eigenvalues --    2.39830   2.43605   2.44589   2.48989   2.52833
 Alpha virt. eigenvalues --    2.54457   2.55042   2.55905   2.57142   2.57776
 Alpha virt. eigenvalues --    2.58687   2.61735   2.64730   2.65266   2.66711
 Alpha virt. eigenvalues --    2.68089   2.70164   2.71385   2.76786   2.78192
 Alpha virt. eigenvalues --    2.82811   2.84793   2.85534   2.87061   2.89639
 Alpha virt. eigenvalues --    2.90625   2.92212   2.95105   2.96844   3.01973
 Alpha virt. eigenvalues --    3.03879   3.04411   3.05723   3.05788   3.06052
 Alpha virt. eigenvalues --    3.08756   3.09970   3.11186   3.11374   3.11909
 Alpha virt. eigenvalues --    3.13810   3.15369   3.17043   3.17498   3.19275
 Alpha virt. eigenvalues --    3.20626   3.22293   3.26416   3.27312   3.28256
 Alpha virt. eigenvalues --    3.29044   3.30482   3.32958   3.33756   3.34278
 Alpha virt. eigenvalues --    3.35217   3.39121   3.41760   3.42319   3.43728
 Alpha virt. eigenvalues --    3.43922   3.45955   3.46775   3.47491   3.48529
 Alpha virt. eigenvalues --    3.48799   3.49152   3.49200   3.50636   3.51032
 Alpha virt. eigenvalues --    3.51642   3.52735   3.53735   3.55221   3.55503
 Alpha virt. eigenvalues --    3.56221   3.56716   3.60127   3.60218   3.62520
 Alpha virt. eigenvalues --    3.63387   3.64790   3.71726   3.72533   3.73246
 Alpha virt. eigenvalues --    3.75867   3.76865   3.77359   3.77928   3.78600
 Alpha virt. eigenvalues --    3.79632   3.80879   3.81882   3.82229   3.82467
 Alpha virt. eigenvalues --    3.83096   3.85238   3.85840   3.86658   3.88667
 Alpha virt. eigenvalues --    3.90231   3.92851   3.95783   3.97160   3.99156
 Alpha virt. eigenvalues --    4.02715   4.03047   4.03492   4.03806   4.10944
 Alpha virt. eigenvalues --    4.16880   4.16982   4.19366   4.20204   4.20512
 Alpha virt. eigenvalues --    4.21079   4.22088   4.22596   4.22969   4.24286
 Alpha virt. eigenvalues --    4.24534   4.25156   4.25344   4.26637   4.27411
 Alpha virt. eigenvalues --    4.28418   4.29044   4.30790   4.32722   4.33714
 Alpha virt. eigenvalues --    4.35385   4.41801   4.43061   4.43563   4.44252
 Alpha virt. eigenvalues --    4.48899   4.51906   4.52856   4.54195   4.54812
 Alpha virt. eigenvalues --    4.56244   4.57161   4.58246   4.59577   4.62372
 Alpha virt. eigenvalues --    4.63015   4.64682   4.65354   4.66173   4.68338
 Alpha virt. eigenvalues --    4.69383   4.70333   4.75744   4.76713   4.77345
 Alpha virt. eigenvalues --    4.78087   4.78128   4.78239   4.78516   4.80364
 Alpha virt. eigenvalues --    4.80446   4.82795   4.85026   4.89015   4.92902
 Alpha virt. eigenvalues --    4.99489   5.00578   5.05488   5.06912   5.10320
 Alpha virt. eigenvalues --    5.11154   5.16852   5.17587   5.18787   5.22365
 Alpha virt. eigenvalues --    5.22633   5.22773   5.25097   5.27723   5.29099
 Alpha virt. eigenvalues --    5.36366   5.37788   5.38169   5.43656   5.48044
 Alpha virt. eigenvalues --    5.48148   5.48317   5.48627   5.53126   5.55788
 Alpha virt. eigenvalues --    5.57372   5.63118   5.65069   5.65868   5.66700
 Alpha virt. eigenvalues --    5.71913   5.75166   5.77376   5.80456   5.82903
 Alpha virt. eigenvalues --    5.84467   5.85839   5.87368   5.89029   5.91363
 Alpha virt. eigenvalues --    5.91934   5.94365   6.07148   6.16049   6.18510
 Alpha virt. eigenvalues --    6.20493   6.21454   6.27116   6.32734   6.38880
 Alpha virt. eigenvalues --    6.39615   6.40335   6.44480   6.48480   6.59113
 Alpha virt. eigenvalues --    6.61629   6.63656   6.84761   6.85486   6.89868
 Alpha virt. eigenvalues --    6.95695   6.97500   7.09168   7.15809   7.21511
 Alpha virt. eigenvalues --    7.29588   7.43556   7.51769   7.56235   7.60593
 Alpha virt. eigenvalues --    7.68939   7.84004   7.86628   7.99231   9.48793
 Alpha virt. eigenvalues --    9.67508  12.43164  13.17032  13.26556  13.29042
 Alpha virt. eigenvalues --   13.77515  13.86967  14.08291  16.29795
          Condensed to atoms (all electrons):
              1          2          3          4          5          6
     1  C    5.268816   0.373022   0.373448   0.273167  -0.143385  -0.172038
     2  H    0.373022   0.658634  -0.031841  -0.022320   0.002060   0.004314
     3  H    0.373448  -0.031841   0.597045  -0.013018   0.011501   0.007822
     4  C    0.273167  -0.022320  -0.013018   4.044314   0.721557   0.626653
     5  O   -0.143385   0.002060   0.011501   0.721557   8.109598  -0.103788
     6  O   -0.172038   0.004314   0.007822   0.626653  -0.103788   8.204997
     7  H    0.378683  -0.045328  -0.024739  -0.019263   0.001309   0.004779
     8  C   -0.000449  -0.000096   0.000013   0.000201   0.000004   0.002117
     9  C   -0.003922  -0.001146   0.000319   0.001972   0.000041  -0.033771
    10  C    0.001001  -0.001078  -0.000225   0.000004   0.000002  -0.004118
    11  C    0.000084   0.000025  -0.000007  -0.000009   0.000000  -0.000061
    12  C    0.000000   0.000001   0.000000   0.000001   0.000000  -0.000003
    13  C    0.000010  -0.000013  -0.000001   0.000002   0.000000   0.000016
    14  H   -0.002955   0.000066   0.000185  -0.009122   0.000072   0.064225
    15  H    0.000812   0.000270   0.000001   0.000153   0.000018  -0.000052
    16  H   -0.000006  -0.000003   0.000000   0.000001   0.000000   0.000001
    17  H    0.000000   0.000000   0.000000   0.000000   0.000000   0.000000
    18  H    0.000000   0.000000   0.000000   0.000000   0.000000   0.000001
    19  H    0.000020  -0.000012  -0.000001   0.000061   0.000002   0.000373
              7          8          9         10         11         12
     1  C    0.378683  -0.000449  -0.003922   0.001001   0.000084   0.000000
     2  H   -0.045328  -0.000096  -0.001146  -0.001078   0.000025   0.000001
     3  H   -0.024739   0.000013   0.000319  -0.000225  -0.000007   0.000000
     4  C   -0.019263   0.000201   0.001972   0.000004  -0.000009   0.000001
     5  O    0.001309   0.000004   0.000041   0.000002   0.000000   0.000000
     6  O    0.004779   0.002117  -0.033771  -0.004118  -0.000061  -0.000003
     7  H    0.639251  -0.000008  -0.000113   0.000279   0.000004   0.000003
     8  C   -0.000008   4.983581   0.513433  -0.071626  -0.026006  -0.060101
     9  C   -0.000113   0.513433   4.999119   0.495478  -0.063218  -0.020537
    10  C    0.000279  -0.071626   0.495478   4.983775   0.501134  -0.066838
    11  C    0.000004  -0.026006  -0.063218   0.501134   4.961452   0.508128
    12  C    0.000003  -0.060101  -0.020537  -0.066838   0.508128   4.971177
    13  C   -0.000011   0.472993  -0.064284  -0.022584  -0.065479   0.498763
    14  H   -0.000211  -0.028891   0.385653  -0.035828   0.003519  -0.001807
    15  H    0.000826   0.005767  -0.039333   0.434765  -0.056328   0.006194
    16  H   -0.000003  -0.000975   0.005402  -0.046328   0.436716  -0.050322
    17  H    0.000000   0.005008  -0.000903   0.005079  -0.047215   0.435951
    18  H    0.000000  -0.045799   0.005173  -0.001103   0.005590  -0.050163
    19  H    0.000000   0.435426  -0.034144   0.006031  -0.000925   0.005628
             13         14         15         16         17         18
     1  C    0.000010  -0.002955   0.000812  -0.000006   0.000000   0.000000
     2  H   -0.000013   0.000066   0.000270  -0.000003   0.000000   0.000000
     3  H   -0.000001   0.000185   0.000001   0.000000   0.000000   0.000000
     4  C    0.000002  -0.009122   0.000153   0.000001   0.000000   0.000000
     5  O    0.000000   0.000072   0.000018   0.000000   0.000000   0.000000
     6  O    0.000016   0.064225  -0.000052   0.000001   0.000000   0.000001
     7  H   -0.000011  -0.000211   0.000826  -0.000003   0.000000   0.000000
     8  C    0.472993  -0.028891   0.005767  -0.000975   0.005008  -0.045799
     9  C   -0.064284   0.385653  -0.039333   0.005402  -0.000903   0.005173
    10  C   -0.022584  -0.035828   0.434765  -0.046328   0.005079  -0.001103
    11  C   -0.065479   0.003519  -0.056328   0.436716  -0.047215   0.005590
    12  C    0.498763  -0.001807   0.006194  -0.050322   0.435951  -0.050163
    13  C    4.997587   0.005412  -0.001134   0.005501  -0.047332   0.436216
    14  H    0.005412   0.378925  -0.004043  -0.000027   0.000051  -0.000073
    15  H   -0.001134  -0.004043   0.507172  -0.005232  -0.000254   0.000069
    16  H    0.005501  -0.000027  -0.005232   0.531955  -0.005883  -0.000275
    17  H   -0.047332   0.000051  -0.000254  -0.005883   0.535248  -0.005838
    18  H    0.436216  -0.000073   0.000069  -0.000275  -0.005838   0.531677
    19  H   -0.059135  -0.003519  -0.000217   0.000067  -0.000259  -0.005419
             19
     1  C    0.000020
     2  H   -0.000012
     3  H   -0.000001
     4  C    0.000061
     5  O    0.000002
     6  O    0.000373
     7  H    0.000000
     8  C    0.435426
     9  C   -0.034144
    10  C    0.006031
    11  C   -0.000925
    12  C    0.005628
    13  C   -0.059135
    14  H   -0.003519
    15  H   -0.000217
    16  H    0.000067
    17  H   -0.000259
    18  H   -0.005419
    19  H    0.499358
 Mulliken atomic charges:
              1
     1  C   -0.346311
     2  H    0.063446
     3  H    0.079496
     4  C    0.395646
     5  O   -0.598990
     6  O   -0.601468
     7  H    0.064542
     8  C   -0.184591
     9  C   -0.145218
    10  C   -0.177821
    11  C   -0.157403
    12  C   -0.176077
    13  C   -0.156527
    14  H    0.248367
    15  H    0.150547
    16  H    0.129410
    17  H    0.126345
    18  H    0.129944
    19  H    0.156664
 Sum of Mulliken atomic charges =  -1.00000
 Mulliken charges with hydrogens summed into heavy atoms:
              1
     1  C   -0.138826
     4  C    0.395646
     5  O   -0.598990
     6  O   -0.601468
     8  C   -0.027928
     9  C    0.103149
    10  C   -0.027275
    11  C   -0.027992
    12  C   -0.049732
    13  C   -0.026583
 Sum of Mulliken charges with hydrogens summed into heavy atoms =  -1.00000
          Condensed to fragments (all electrons):
     1      -0.943638
     2      -0.056362
 Electronic spatial extent (au):  <R**2>=           2560.7663
 Charge=             -1.0000 electrons
 Dipole moment (field-independent basis, Debye):
    X=            -10.2661    Y=              7.0018    Z=              2.3173  Tot=             12.6407
 Quadrupole moment (field-independent basis, Debye-Ang):
   XX=           -100.5433   YY=            -82.6788   ZZ=            -67.0691
   XY=             24.4643   XZ=             13.1856   YZ=             -8.2116
 Traceless Quadrupole moment (field-independent basis, Debye-Ang):
   XX=            -17.1129   YY=              0.7516   ZZ=             16.3613
   XY=             24.4643   XZ=             13.1856   YZ=             -8.2116
 Octapole moment (field-independent basis, Debye-Ang**2):
  XXX=            -78.5092  YYY=             -5.7887  ZZZ=             11.6675  XYY=            -45.0351
  XXY=             75.2553  XXZ=             30.1211  XZZ=            -11.9461  YZZ=              5.9776
  YYZ=             12.1231  XYZ=            -28.9555
 Hexadecapole moment (field-independent basis, Debye-Ang**3):
 XXXX=          -2108.1169 YYYY=           -969.1941 ZZZZ=           -968.5535 XXXY=            793.1704
 XXXZ=            564.3968 YYYX=            693.5400 YYYZ=           -349.1924 ZZZX=            440.0630
 ZZZY=           -301.1480 XXYY=           -593.5283 XXZZ=           -515.6745 YYZZ=           -335.2912
 XXYZ=           -193.7381 YYXZ=            203.4693 ZZXY=            222.1970
 N-N= 4.488239912371D+02 E-N=-1.983160176895D+03  KE= 4.575537896882D+02
 No NMR shielding tensors so no spin-rotation constants.
 Leave Link  601 at Tue Sep 10 11:36:36 2019, MaxMem= 4294967296 cpu:       2.2
 (Enter /opt/g09gh/gaussian/g09/l701.exe)
 Compute integral first derivatives.
 ... and contract with generalized density number  2.
 Leave Link  701 at Tue Sep 10 11:36:37 2019, MaxMem= 4294967296 cpu:       2.5
 (Enter /opt/g09gh/gaussian/g09/l702.exe)
 L702 exits ... SP integral derivatives will be done elsewhere.
 Leave Link  702 at Tue Sep 10 11:36:37 2019, MaxMem= 4294967296 cpu:       0.2
 (Enter /opt/g09gh/gaussian/g09/l703.exe)
 Compute integral first derivatives, UseDBF=F ICtDFT=           0.
 Integral derivatives from FoFDir, PRISM(SPDF).
 Calling FoFJK, ICntrl=      2127 FMM=F ISym2X=0 I1Cent= 0 IOpClX= 0 NMat=1 NMatS=1 NMatT=0.
 FoFCou: FMM=F IPFlag=           0 FMFlag=      100000 FMFlg1=         800
         NFxFlg=           0 DoJE=F BraDBF=F KetDBF=F FulRan=T
         Omega=  0.000000  0.000000  1.000000  0.000000  0.000000 ICntrl=    2127 IOpCl=  0
         NMat0=    1 NMatS0=    1 NMatT0=    0 NMatD0=    1 NMtDS0=    0 NMtDT0=    0
         I1Cent=           0 NGrid=           0.
 Symmetry not used in FoFCou.
 Leave Link  703 at Tue Sep 10 11:37:18 2019, MaxMem= 4294967296 cpu:     327.8
 (Enter /opt/g09gh/gaussian/g09/l716.exe)
 Dipole        =-3.86958762D+00 2.62294922D+00 1.05178769D+00
 Cartesian Forces:  Max     0.005395457 RMS     0.001136965
 Leave Link  716 at Tue Sep 10 11:37:18 2019, MaxMem= 4294967296 cpu:       0.6
 (Enter /opt/g09gh/gaussian/g09/l122.exe)
 Restoring MOs from calculation   2 to rwf and chk.
 Counterpoise: doing DCBS calculation for fragment   1 NewBq=T
 Leave Link  122 at Tue Sep 10 11:37:18 2019, MaxMem= 4294967296 cpu:       0.1
 (Enter /opt/g09gh/gaussian/g09/l301.exe)
 Basis read from rwf:  (5D, 7F)
 No pseudopotential information found on rwf file.
 Integral buffers will be    131072 words long.
 Raffenetti 1 integral format.
 Two-electron integral symmetry is turned off.
   426 basis functions,   673 primitive gaussians,   485 cartesian basis functions
    16 alpha electrons       16 beta electrons
       nuclear repulsion energy       111.8903216524 Hartrees.
 IExCor=    0 DFT=F Ex=HF Corr=None ExCW=0 ScaHFX=  1.000000
 ScaDFX=  1.000000  1.000000  1.000000  1.000000 ScalE2=  1.000000  1.000000
 IRadAn=      0 IRanWt=     -1 IRanGd=            0 ICorTp=0
 NAtoms=   19 NActive=   19 NUniq=   19 SFac= 7.50D-01 NAtFMM=   80 NAOKFM=F Big=F
 No density basis found on file   718.
 Leave Link  301 at Tue Sep 10 11:37:18 2019, MaxMem= 4294967296 cpu:       0.8
 (Enter /opt/g09gh/gaussian/g09/l302.exe)
 NPDir=0 NMtPBC=     1 NCelOv=     1 NCel=       1 NClECP=     1 NCelD=      1
         NCelK=      1 NCelE2=     1 NClLst=     1 CellRange=     0.0.
 One-electron integrals computed using PRISM.
 NBasis=   426 RedAO= T  NBF=   426
 NBsUse=   426 1.00D-06 NBFU=   426
 Leave Link  302 at Tue Sep 10 11:37:18 2019, MaxMem= 4294967296 cpu:       3.4
 (Enter /opt/g09gh/gaussian/g09/l303.exe)
 DipDrv:  MaxL=1.
 Leave Link  303 at Tue Sep 10 11:37:19 2019, MaxMem= 4294967296 cpu:       0.6
 (Enter /opt/g09gh/gaussian/g09/l401.exe)
 Harris functional with IExCor=  205 diagonalized for initial guess.
 ExpMin= 1.03D-01 ExpMax= 1.53D+04 ExpMxC= 5.22D+02 IAcc=1 IRadAn=         1 AccDes= 0.00D+00
 HarFok:  IExCor=  205 AccDes= 0.00D+00 IRadAn=         1 IDoV= 1
 ScaDFX=  1.000000  1.000000  1.000000  1.000000
 FoFCou: FMM=F IPFlag=           0 FMFlag=      100000 FMFlg1=           0
         NFxFlg=           0 DoJE=T BraDBF=F KetDBF=T FulRan=T
         Omega=  0.000000  0.000000  1.000000  0.000000  0.000000 ICntrl=     500 IOpCl=  0
         NMat0=    1 NMatS0=    1 NMatT0=    0 NMatD0=    1 NMtDS0=    0 NMtDT0=    0
         I1Cent=           4 NGrid=           0.
 Symmetry not used in FoFCou.
 Harris En= -227.762617772148    
 Leave Link  401 at Tue Sep 10 11:37:19 2019, MaxMem= 4294967296 cpu:       5.8
 (Enter /opt/g09gh/gaussian/g09/l502.exe)
 Closed shell SCF:
 Requested convergence on RMS density matrix=1.00D-08 within  64 cycles.
 Requested convergence on MAX density matrix=1.00D-06.
 Requested convergence on             energy=1.00D-06.
 No special actions if energy rises.
 Using DIIS extrapolation, IDIIS=  1040.
 Two-electron integral symmetry not used.
 IEnd=      718041 IEndB=      718041 NGot=  4294967296 MDV=  4294489190
 LenX=  4294489190 LenY=  4294253480
 Fock matrices will be formed incrementally for  20 cycles.
 Integral accuracy reduced to 1.0D-05 until final iterations.

 Cycle   1  Pass 0  IDiag  1:
 FoFCou: FMM=F IPFlag=           0 FMFlag=      100000 FMFlg1=           0
         NFxFlg=           0 DoJE=F BraDBF=F KetDBF=F FulRan=T
         Omega=  0.000000  0.000000  1.000000  0.000000  0.000000 ICntrl=       0 IOpCl=  0
         NMat0=    1 NMatS0=    1 NMatT0=    0 NMatD0=    1 NMtDS0=    0 NMtDT0=    0
         I1Cent=           0 NGrid=           0.
 Symmetry not used in FoFCou.
 E= -227.034898905300    
 DIIS: error= 3.45D-02 at cycle   1 NSaved=   1.
 NSaved= 1 IEnMin= 1 EnMin= -227.034898905300     IErMin= 1 ErrMin= 3.45D-02
 ErrMax= 3.45D-02 EMaxC= 1.00D-01 BMatC= 5.55D-01 BMatP= 5.55D-01
 IDIUse=3 WtCom= 6.55D-01 WtEn= 3.45D-01
 Coeff-Com:  0.100D+01
 Coeff-En:   0.100D+01
 Coeff:      0.100D+01
 Gap=     0.574 Goal=   None    Shift=    0.000
 GapD=    0.574 DampG=2.000 DampE=0.500 DampFc=1.0000 IDamp=-1.
 RMSDP=2.03D-03 MaxDP=2.36D-01              OVMax= 1.42D-01

 Cycle   2  Pass 0  IDiag  1:
 RMSU=  1.43D-03    CP:  1.01D+00
 E= -227.258061832809     Delta-E=       -0.223162927508 Rises=F Damp=F
 DIIS: error= 1.60D-02 at cycle   2 NSaved=   2.
 NSaved= 2 IEnMin= 2 EnMin= -227.258061832809     IErMin= 2 ErrMin= 1.60D-02
 ErrMax= 1.60D-02 EMaxC= 1.00D-01 BMatC= 9.60D-02 BMatP= 5.55D-01
 IDIUse=3 WtCom= 8.40D-01 WtEn= 1.60D-01
 Coeff-Com:  0.247D+00 0.753D+00
 Coeff-En:   0.000D+00 0.100D+01
 Coeff:      0.208D+00 0.792D+00
 Gap=     0.364 Goal=   None    Shift=    0.000
 RMSDP=1.03D-03 MaxDP=1.51D-01 DE=-2.23D-01 OVMax= 6.03D-02

 Cycle   3  Pass 0  IDiag  1:
 RMSU=  2.41D-04    CP:  1.01D+00  5.21D-01
 E= -227.315304164111     Delta-E=       -0.057242331302 Rises=F Damp=F
 DIIS: error= 4.65D-03 at cycle   3 NSaved=   3.
 NSaved= 3 IEnMin= 3 EnMin= -227.315304164111     IErMin= 3 ErrMin= 4.65D-03
 ErrMax= 4.65D-03 EMaxC= 1.00D-01 BMatC= 7.86D-03 BMatP= 9.60D-02
 IDIUse=3 WtCom= 9.54D-01 WtEn= 4.65D-02
 Coeff-Com: -0.167D-01 0.192D+00 0.825D+00
 Coeff-En:   0.000D+00 0.000D+00 0.100D+01
 Coeff:     -0.159D-01 0.183D+00 0.833D+00
 Gap=     0.344 Goal=   None    Shift=    0.000
 RMSDP=1.16D-04 MaxDP=6.25D-03 DE=-5.72D-02 OVMax= 1.70D-02

 Cycle   4  Pass 0  IDiag  1:
 RMSU=  6.70D-05    CP:  1.01D+00  5.54D-01  1.01D+00
 E= -227.319830522035     Delta-E=       -0.004526357924 Rises=F Damp=F
 DIIS: error= 1.36D-03 at cycle   4 NSaved=   4.
 NSaved= 4 IEnMin= 4 EnMin= -227.319830522035     IErMin= 4 ErrMin= 1.36D-03
 ErrMax= 1.36D-03 EMaxC= 1.00D-01 BMatC= 3.19D-04 BMatP= 7.86D-03
 IDIUse=3 WtCom= 9.86D-01 WtEn= 1.36D-02
 Coeff-Com: -0.104D-01 0.340D-01 0.251D+00 0.726D+00
 Coeff-En:   0.000D+00 0.000D+00 0.000D+00 0.100D+01
 Coeff:     -0.103D-01 0.336D-01 0.247D+00 0.729D+00
 Gap=     0.337 Goal=   None    Shift=    0.000
 RMSDP=3.16D-05 MaxDP=1.46D-03 DE=-4.53D-03 OVMax= 4.55D-03

 Cycle   5  Pass 0  IDiag  1:
 RMSU=  1.65D-05    CP:  1.01D+00  5.48D-01  1.05D+00  9.15D-01
 E= -227.320126805368     Delta-E=       -0.000296283334 Rises=F Damp=F
 DIIS: error= 2.64D-04 at cycle   5 NSaved=   5.
 NSaved= 5 IEnMin= 5 EnMin= -227.320126805368     IErMin= 5 ErrMin= 2.64D-04
 ErrMax= 2.64D-04 EMaxC= 1.00D-01 BMatC= 1.39D-05 BMatP= 3.19D-04
 IDIUse=3 WtCom= 9.97D-01 WtEn= 2.64D-03
 Coeff-Com:  0.299D-02-0.196D-01-0.114D+00-0.968D-01 0.123D+01
 Coeff-En:   0.000D+00 0.000D+00 0.000D+00 0.000D+00 0.100D+01
 Coeff:      0.298D-02-0.195D-01-0.114D+00-0.966D-01 0.123D+01
 Gap=     0.337 Goal=   None    Shift=    0.000
 RMSDP=2.63D-05 MaxDP=2.78D-03 DE=-2.96D-04 OVMax= 2.21D-03

 Cycle   6  Pass 0  IDiag  1:
 RMSU=  4.21D-06    CP:  1.00D+00  5.39D-01  1.08D+00  1.06D+00  1.44D+00
 E= -227.320151029742     Delta-E=       -0.000024224374 Rises=F Damp=F
 DIIS: error= 4.88D-05 at cycle   6 NSaved=   6.
 NSaved= 6 IEnMin= 6 EnMin= -227.320151029742     IErMin= 6 ErrMin= 4.88D-05
 ErrMax= 4.88D-05 EMaxC= 1.00D-01 BMatC= 5.24D-07 BMatP= 1.39D-05
 IDIUse=1 WtCom= 1.00D+00 WtEn= 0.00D+00
 Coeff-Com:  0.650D-03-0.304D-02-0.173D-01-0.316D-01 0.605D-01 0.991D+00
 Coeff:      0.650D-03-0.304D-02-0.173D-01-0.316D-01 0.605D-01 0.991D+00
 Gap=     0.337 Goal=   None    Shift=    0.000
 RMSDP=4.53D-06 MaxDP=1.48D-04 DE=-2.42D-05 OVMax= 4.61D-04

 Initial convergence to 1.0D-05 achieved.  Increase integral accuracy.
 Cycle   7  Pass 1  IDiag  1:
 E= -227.320152801676     Delta-E=       -0.000001771934 Rises=F Damp=F
 DIIS: error= 2.87D-05 at cycle   1 NSaved=   1.
 NSaved= 1 IEnMin= 1 EnMin= -227.320152801676     IErMin= 1 ErrMin= 2.87D-05
 ErrMax= 2.87D-05 EMaxC= 1.00D-01 BMatC= 2.38D-07 BMatP= 2.38D-07
 IDIUse=1 WtCom= 1.00D+00 WtEn= 0.00D+00
 Coeff-Com:  0.100D+01
 Coeff:      0.100D+01
 Gap=     0.337 Goal=   None    Shift=    0.000
 RMSDP=4.53D-06 MaxDP=1.48D-04 DE=-1.77D-06 OVMax= 1.44D-04

 Cycle   8  Pass 1  IDiag  1:
 RMSU=  1.42D-05    CP:  1.00D+00
 E= -227.320152926355     Delta-E=       -0.000000124679 Rises=F Damp=F
 DIIS: error= 1.63D-05 at cycle   2 NSaved=   2.
 NSaved= 2 IEnMin= 2 EnMin= -227.320152926355     IErMin= 2 ErrMin= 1.63D-05
 ErrMax= 1.63D-05 EMaxC= 1.00D-01 BMatC= 9.18D-08 BMatP= 2.38D-07
 IDIUse=1 WtCom= 1.00D+00 WtEn= 0.00D+00
 Coeff-Com:  0.358D+00 0.642D+00
 Coeff:      0.358D+00 0.642D+00
 Gap=     0.337 Goal=   None    Shift=    0.000
 RMSDP=9.71D-07 MaxDP=4.17D-05 DE=-1.25D-07 OVMax= 1.11D-04

 Cycle   9  Pass 1  IDiag  1:
 RMSU=  4.31D-07    CP:  1.00D+00  1.04D+00
 E= -227.320152993472     Delta-E=       -0.000000067116 Rises=F Damp=F
 DIIS: error= 3.64D-06 at cycle   3 NSaved=   3.
 NSaved= 3 IEnMin= 3 EnMin= -227.320152993472     IErMin= 3 ErrMin= 3.64D-06
 ErrMax= 3.64D-06 EMaxC= 1.00D-01 BMatC= 6.52D-09 BMatP= 9.18D-08
 IDIUse=1 WtCom= 1.00D+00 WtEn= 0.00D+00
 Coeff-Com: -0.855D-01 0.893D-01 0.996D+00
 Coeff:     -0.855D-01 0.893D-01 0.996D+00
 Gap=     0.337 Goal=   None    Shift=    0.000
 RMSDP=6.29D-07 MaxDP=2.56D-05 DE=-6.71D-08 OVMax= 3.55D-05

 Cycle  10  Pass 1  IDiag  1:
 RMSU=  2.42D-07    CP:  1.00D+00  1.06D+00  1.13D+00
 E= -227.320153003336     Delta-E=       -0.000000009864 Rises=F Damp=F
 DIIS: error= 1.57D-06 at cycle   4 NSaved=   4.
 NSaved= 4 IEnMin= 4 EnMin= -227.320153003336     IErMin= 4 ErrMin= 1.57D-06
 ErrMax= 1.57D-06 EMaxC= 1.00D-01 BMatC= 5.55D-10 BMatP= 6.52D-09
 IDIUse=1 WtCom= 1.00D+00 WtEn= 0.00D+00
 Coeff-Com:  0.102D-02-0.801D-01-0.477D+00 0.156D+01
 Coeff:      0.102D-02-0.801D-01-0.477D+00 0.156D+01
 Gap=     0.337 Goal=   None    Shift=    0.000
 RMSDP=2.14D-07 MaxDP=1.25D-05 DE=-9.86D-09 OVMax= 2.44D-05

 Cycle  11  Pass 1  IDiag  1:
 RMSU=  6.51D-08    CP:  1.00D+00  1.06D+00  1.21D+00  1.54D+00
 E= -227.320153005270     Delta-E=       -0.000000001935 Rises=F Damp=F
 DIIS: error= 2.90D-07 at cycle   5 NSaved=   5.
 NSaved= 5 IEnMin= 5 EnMin= -227.320153005270     IErMin= 5 ErrMin= 2.90D-07
 ErrMax= 2.90D-07 EMaxC= 1.00D-01 BMatC= 4.75D-11 BMatP= 5.55D-10
 IDIUse=1 WtCom= 1.00D+00 WtEn= 0.00D+00
 Coeff-Com:  0.458D-02-0.212D-01-0.177D+00 0.376D+00 0.818D+00
 Coeff:      0.458D-02-0.212D-01-0.177D+00 0.376D+00 0.818D+00
 Gap=     0.337 Goal=   None    Shift=    0.000
 RMSDP=3.59D-08 MaxDP=1.35D-06 DE=-1.93D-09 OVMax= 4.30D-06

 Cycle  12  Pass 1  IDiag  1:
 RMSU=  1.25D-08    CP:  1.00D+00  1.06D+00  1.20D+00  1.58D+00  1.14D+00
 E= -227.320153005357     Delta-E=       -0.000000000087 Rises=F Damp=F
 DIIS: error= 1.76D-07 at cycle   6 NSaved=   6.
 NSaved= 6 IEnMin= 6 EnMin= -227.320153005357     IErMin= 6 ErrMin= 1.76D-07
 ErrMax= 1.76D-07 EMaxC= 1.00D-01 BMatC= 7.84D-12 BMatP= 4.75D-11
 IDIUse=1 WtCom= 1.00D+00 WtEn= 0.00D+00
 Coeff-Com: -0.106D-02 0.205D-01 0.107D+00-0.319D+00-0.129D+00 0.132D+01
 Coeff:     -0.106D-02 0.205D-01 0.107D+00-0.319D+00-0.129D+00 0.132D+01
 Gap=     0.337 Goal=   None    Shift=    0.000
 RMSDP=2.21D-08 MaxDP=8.71D-07 DE=-8.70D-11 OVMax= 3.26D-06

 Cycle  13  Pass 1  IDiag  1:
 RMSU=  7.26D-09    CP:  1.00D+00  1.06D+00  1.18D+00  1.57D+00  1.20D+00
                    CP:  1.66D+00
 E= -227.320153005377     Delta-E=       -0.000000000020 Rises=F Damp=F
 DIIS: error= 6.59D-08 at cycle   7 NSaved=   7.
 NSaved= 7 IEnMin= 7 EnMin= -227.320153005377     IErMin= 7 ErrMin= 6.59D-08
 ErrMax= 6.59D-08 EMaxC= 1.00D-01 BMatC= 1.21D-12 BMatP= 7.84D-12
 IDIUse=1 WtCom= 1.00D+00 WtEn= 0.00D+00
 Coeff-Com: -0.917D-03 0.900D-02 0.523D-01-0.142D+00-0.158D+00 0.319D+00
 Coeff-Com:  0.921D+00
 Coeff:     -0.917D-03 0.900D-02 0.523D-01-0.142D+00-0.158D+00 0.319D+00
 Coeff:      0.921D+00
 Gap=     0.337 Goal=   None    Shift=    0.000
 RMSDP=6.41D-09 MaxDP=2.77D-07 DE=-1.98D-11 OVMax= 1.19D-06

 SCF Done:  E(RHF) =  -227.320153005     A.U. after   13 cycles
             Convg  =    0.6406D-08             -V/T =  2.0011
 KE= 2.270731343050D+02 PE=-7.682598513856D+02 EE= 2.019762424229D+02
 Leave Link  502 at Tue Sep 10 11:39:32 2019, MaxMem= 4294967296 cpu:    1062.9
 (Enter /opt/g09gh/gaussian/g09/l801.exe)
 ExpMin= 1.03D-01 ExpMax= 1.53D+04 ExpMxC= 5.22D+02 IAcc=1 IRadAn=         1 AccDes= 0.00D+00
 HarFok:  IExCor=  205 AccDes= 0.00D+00 IRadAn=         1 IDoV=-2
 ScaDFX=  1.000000  1.000000  1.000000  1.000000
 Largest valence mixing into a core orbital is  2.20D-04
 Largest core mixing into a valence orbital is  3.11D-05
 Range of M.O.s used for correlation:     5   426
 NBasis=   426 NAE=    16 NBE=    16 NFC=     4 NFV=     0
 NROrb=    422 NOA=    12 NOB=    12 NVA=   410 NVB=   410

 **** Warning!!: The largest alpha MO coefficient is  0.26545993D+02

 Leave Link  801 at Tue Sep 10 11:39:32 2019, MaxMem= 4294967296 cpu:       0.5
 (Enter /opt/g09gh/gaussian/g09/l906.exe)
 Frozen-core derivative calculation, NFC=   4 NFV=   0.
 FulOut=F Deriv=T AODrv=T NAtomX=    19
   MMem=          93  MDisk=          12 MDiskD=          12
  W3Min=     3305760 MinDsk=     5821015 NBas6D=         485
 NBas2D=      118884    NTT=      117855    LW2=     3500000
    MDV=  4292979616 MDiskM=       44236 NBas2p=       93754
 Fully direct method using O(ONN) memory.
 IMap=   1   2   3   4   5   6   7   8   9  10  11  12  13  14  15  16
 JobTyp=1 Pass  1:  I=   5 to  14 NPSUse=  8 ParTrn=T ParDer=T DoDerP=T.
 JobTyp=1 Pass  2:  I=  15 to  16 NPSUse=  8 ParTrn=T ParDer=T DoDerP=T.
 Spin components of T(2) and E(2):
     alpha-alpha T2 =       0.2980354117D-01 E2=     -0.1034524578D+00
     alpha-beta  T2 =       0.1628853902D+00 E2=     -0.6048529818D+00
     beta-beta   T2 =       0.2980354117D-01 E2=     -0.1034524578D+00
 The integrals were generated   2 times.
 ANorm=    0.1105663815D+01
 E2 =    -0.8117578974D+00 EUMP2 =    -0.22813191090276D+03
 Leave Link  906 at Tue Sep 10 11:46:18 2019, MaxMem= 4294967296 cpu:    3246.5
 (Enter /opt/g09gh/gaussian/g09/l1002.exe)
 Minotr:  Closed shell wavefunction.
          Computing MP2/KS-MP2 derivatives.
          Using Z-Vector for PSCF gradient.
          Skipping F1 and S1 gradient terms here.
          IDoAtm=1111111111111111111
          Frozen-core window.
          Direct CPHF calculation.
          Differentiating once with respect to electric field.
                with respect to dipole field.
          Differentiating once with respect to nuclear coordinates.
          Requested convergence is 1.0D-10 RMS, and 1.0D-09 maximum.
          NewPWx=F KeepS1=T KeepF1=T KeepIn=T MapXYZ=F SortEE=F KeepMc=T.
          MDV=    4294967102 using IRadAn=       0.
          Solving linear equations separately, MaxMat=       0.
          There are     1 degrees of freedom in the 1st order CPHF.  IDoFFX=0.
 Symmetry not used in FoFDir.
 MinBra= 0 MaxBra= 3 Meth= 1.
 IRaf=       0 NMat=   1 IRICut=       1 DoRegI=T DoRafI=F ISym2E= 0 JSym2E=0.
 LinEq1:  Iter=  0 NonCon=     1 RMS=3.27D-03 Max=1.16D-01
 AX will form     1 AO Fock derivatives at one time.
 LinEq1:  Iter=  1 NonCon=     1 RMS=8.97D-04 Max=1.73D-02
 LinEq1:  Iter=  2 NonCon=     1 RMS=2.85D-04 Max=5.27D-03
 LinEq1:  Iter=  3 NonCon=     1 RMS=1.06D-04 Max=1.87D-03
 LinEq1:  Iter=  4 NonCon=     1 RMS=3.38D-05 Max=9.73D-04
 LinEq1:  Iter=  5 NonCon=     1 RMS=6.05D-06 Max=1.25D-04
 LinEq1:  Iter=  6 NonCon=     1 RMS=2.03D-06 Max=7.44D-05
 LinEq1:  Iter=  7 NonCon=     1 RMS=7.60D-07 Max=1.19D-05
 LinEq1:  Iter=  8 NonCon=     1 RMS=1.48D-07 Max=1.59D-06
 LinEq1:  Iter=  9 NonCon=     1 RMS=4.87D-08 Max=6.35D-07
 LinEq1:  Iter= 10 NonCon=     1 RMS=1.18D-08 Max=3.07D-07
 LinEq1:  Iter= 11 NonCon=     1 RMS=2.37D-09 Max=7.70D-08
 LinEq1:  Iter= 12 NonCon=     1 RMS=6.42D-10 Max=1.82D-08
 LinEq1:  Iter= 13 NonCon=     1 RMS=1.28D-10 Max=2.34D-09
 LinEq1:  Iter= 14 NonCon=     0 RMS=2.20D-11 Max=3.40D-10
 Linear equations converged to 1.000D-10 1.000D-09 after    14 iterations.
 End of Minotr Frequency-dependent properties file   721 does not exist.
 End of Minotr Frequency-dependent properties file   722 does not exist.
 Leave Link 1002 at Tue Sep 10 11:49:32 2019, MaxMem= 4294967296 cpu:    1551.7
 (Enter /opt/g09gh/gaussian/g09/l601.exe)
 Copying SCF densities to generalized density rwf, IOpCl= 0 IROHF=0.

 **********************************************************************

            Population analysis using the SCF density.

 **********************************************************************

 Alpha  occ. eigenvalues --  -20.27201 -20.26934 -11.12009 -11.03750  -1.14992
 Alpha  occ. eigenvalues --   -1.05021  -0.78464  -0.50210  -0.40811  -0.40465
 Alpha  occ. eigenvalues --   -0.40386  -0.35209  -0.30912  -0.19242  -0.18230
 Alpha  occ. eigenvalues --   -0.17876
 Alpha virt. eigenvalues --    0.15866   0.19966   0.22396   0.27159   0.27595
 Alpha virt. eigenvalues --    0.30242   0.31102   0.32942   0.35695   0.36409
 Alpha virt. eigenvalues --    0.38030   0.39452   0.40586   0.42551   0.43915
 Alpha virt. eigenvalues --    0.45487   0.45801   0.48241   0.49476   0.51930
 Alpha virt. eigenvalues --    0.52676   0.53038   0.55053   0.57111   0.57430
 Alpha virt. eigenvalues --    0.58298   0.59743   0.62544   0.62673   0.64560
 Alpha virt. eigenvalues --    0.67253   0.69145   0.71460   0.72268   0.73706
 Alpha virt. eigenvalues --    0.77373   0.78489   0.79281   0.81085   0.81708
 Alpha virt. eigenvalues --    0.82539   0.84006   0.84405   0.85215   0.86897
 Alpha virt. eigenvalues --    0.88438   0.91740   0.93117   0.94643   0.95297
 Alpha virt. eigenvalues --    0.96138   0.97369   0.98098   0.99176   1.00568
 Alpha virt. eigenvalues --    1.02878   1.04941   1.05371   1.06118   1.07352
 Alpha virt. eigenvalues --    1.13128   1.13275   1.15600   1.17195   1.17601
 Alpha virt. eigenvalues --    1.18941   1.19397   1.19900   1.20254   1.20655
 Alpha virt. eigenvalues --    1.21363   1.23505   1.25072   1.25997   1.26812
 Alpha virt. eigenvalues --    1.28678   1.29307   1.30203   1.30262   1.30953
 Alpha virt. eigenvalues --    1.31421   1.31948   1.33399   1.34389   1.35980
 Alpha virt. eigenvalues --    1.36605   1.40380   1.41645   1.42521   1.43478
 Alpha virt. eigenvalues --    1.44040   1.45439   1.46124   1.47624   1.49010
 Alpha virt. eigenvalues --    1.49990   1.52184   1.53367   1.55536   1.55680
 Alpha virt. eigenvalues --    1.57493   1.58113   1.58532   1.58845   1.61678
 Alpha virt. eigenvalues --    1.63099   1.65210   1.65887   1.66828   1.68539
 Alpha virt. eigenvalues --    1.69705   1.70338   1.71699   1.74835   1.76757
 Alpha virt. eigenvalues --    1.77452   1.78130   1.78783   1.82417   1.86012
 Alpha virt. eigenvalues --    1.93397   1.94151   1.95113   1.95609   1.97098
 Alpha virt. eigenvalues --    1.98062   1.98476   2.01150   2.04122   2.04635
 Alpha virt. eigenvalues --    2.05598   2.06166   2.07927   2.09126   2.09982
 Alpha virt. eigenvalues --    2.11359   2.12478   2.14095   2.19280   2.21826
 Alpha virt. eigenvalues --    2.23170   2.29303   2.33987   2.40683   2.46220
 Alpha virt. eigenvalues --    2.48731   2.53906   2.54163   2.56666   2.57757
 Alpha virt. eigenvalues --    2.58754   2.59709   2.60577   2.65313   2.66485
 Alpha virt. eigenvalues --    2.69644   2.69866   2.72900   2.74952   2.78314
 Alpha virt. eigenvalues --    2.85060   2.89793   2.97419   3.03521   3.04092
 Alpha virt. eigenvalues --    3.04842   3.06496   3.10386   3.12398   3.19202
 Alpha virt. eigenvalues --    3.24791   3.28654   3.28777   3.30446   3.31764
 Alpha virt. eigenvalues --    3.36743   3.41041   3.41603   3.44013   3.46395
 Alpha virt. eigenvalues --    3.47929   3.50063   3.51764   3.52238   3.54304
 Alpha virt. eigenvalues --    3.55556   3.60994   3.61324   3.64013   3.64464
 Alpha virt. eigenvalues --    3.65530   3.67816   3.70731   3.71198   3.72013
 Alpha virt. eigenvalues --    3.72878   3.73967   3.74255   3.76138   3.76296
 Alpha virt. eigenvalues --    3.77641   3.79644   3.80590   3.82654   3.84118
 Alpha virt. eigenvalues --    3.85295   3.86926   3.87530   3.90244   3.93837
 Alpha virt. eigenvalues --    3.95630   3.97417   3.98005   3.99271   4.00236
 Alpha virt. eigenvalues --    4.02404   4.02488   4.03062   4.04632   4.05623
 Alpha virt. eigenvalues --    4.06425   4.07079   4.07845   4.09568   4.12673
 Alpha virt. eigenvalues --    4.13232   4.14806   4.15896   4.17941   4.21365
 Alpha virt. eigenvalues --    4.22351   4.23383   4.26659   4.26895   4.27425
 Alpha virt. eigenvalues --    4.27450   4.27654   4.28402   4.30695   4.33132
 Alpha virt. eigenvalues --    4.34605   4.34995   4.35837   4.36054   4.37744
 Alpha virt. eigenvalues --    4.38247   4.43022   4.43623   4.44985   4.47381
 Alpha virt. eigenvalues --    4.52017   4.53537   4.54997   4.55494   4.57602
 Alpha virt. eigenvalues --    4.58560   4.59858   4.63492   4.67822   4.68177
 Alpha virt. eigenvalues --    4.68891   4.69383   4.69573   4.70673   4.70875
 Alpha virt. eigenvalues --    4.71973   4.73431   4.73904   4.75467   4.76350
 Alpha virt. eigenvalues --    4.76920   4.78710   4.79079   4.81854   4.82077
 Alpha virt. eigenvalues --    4.83360   4.83564   4.86270   4.89644   4.92971
 Alpha virt. eigenvalues --    4.93860   4.94388   4.94480   4.95394   4.98107
 Alpha virt. eigenvalues --    4.98795   5.01215   5.02626   5.07267   5.08641
 Alpha virt. eigenvalues --    5.10025   5.10421   5.11637   5.14607   5.15057
 Alpha virt. eigenvalues --    5.16008   5.17234   5.21669   5.30015   5.32617
 Alpha virt. eigenvalues --    5.32899   5.34492   5.34924   5.36264   5.38317
 Alpha virt. eigenvalues --    5.38711   5.42525   5.43767   5.43889   5.44241
 Alpha virt. eigenvalues --    5.46025   5.47673   5.48085   5.58497   5.58997
 Alpha virt. eigenvalues --    5.64500   5.67053   5.68135   5.68496   5.73382
 Alpha virt. eigenvalues --    5.76583   5.77373   5.79316   5.82283   5.84592
 Alpha virt. eigenvalues --    5.87495   5.90226   5.91067   5.92215   5.93480
 Alpha virt. eigenvalues --    5.95069   5.97783   5.98839   6.03602   6.03750
 Alpha virt. eigenvalues --    6.04032   6.07414   6.09209   6.11602   6.15810
 Alpha virt. eigenvalues --    6.16535   6.16833   6.19114   6.20418   6.21501
 Alpha virt. eigenvalues --    6.23349   6.28706   6.30892   6.33458   6.39147
 Alpha virt. eigenvalues --    6.41368   6.45822   6.47065   6.48297   6.56994
 Alpha virt. eigenvalues --    6.57016   6.61198   6.64955   6.65543   6.83883
 Alpha virt. eigenvalues --    6.87466   6.88266   6.91586   6.97707   6.99352
 Alpha virt. eigenvalues --    7.11120   7.17354   7.23548   7.28420   7.29726
 Alpha virt. eigenvalues --    7.34630   7.51794   7.52280   7.53383   7.58108
 Alpha virt. eigenvalues --    7.59802   7.62433   7.70353   7.74611   7.80188
 Alpha virt. eigenvalues --    7.80557   7.82616   7.84097   7.86570   7.91387
 Alpha virt. eigenvalues --    8.00101   8.03991   8.08440   8.32044   8.32341
 Alpha virt. eigenvalues --    8.50236   8.50617   8.54784   8.99527   9.53194
 Alpha virt. eigenvalues --    9.73246   9.76502   9.83767   9.97595   9.99072
 Alpha virt. eigenvalues --   10.58454  12.45991  13.24472  14.08656  35.16779
 Alpha virt. eigenvalues --   42.89531  43.12376  44.15944  44.34770  49.19954
          Condensed to atoms (all electrons):
              1          2          3          4          5          6
     1  C    5.310108   0.369889   0.369976   0.251203  -0.149141  -0.183476
     2  H    0.369889   0.653062  -0.033612  -0.020066   0.002095   0.004941
     3  H    0.369976  -0.033612   0.610873  -0.011484   0.011853   0.008023
     4  C    0.251203  -0.020066  -0.011484   4.049238   0.719652   0.654435
     5  O   -0.149141   0.002095   0.011853   0.719652   8.130205  -0.104933
     6  O   -0.183476   0.004941   0.008023   0.654435  -0.104933   8.134976
     7  H    0.371123  -0.041412  -0.027084  -0.016851   0.001618   0.006087
[...]
   D20       -3.13830  -0.00004  -0.00279  -0.00043  -0.00302  -3.14132
   D21       -3.14039  -0.00004   0.00031  -0.00078  -0.00074  -3.14113
   D22       -0.00555   0.00015   0.00144   0.00338   0.00452  -0.00104
   D23       -0.00839   0.00020   0.00334   0.00315   0.00638  -0.00200
   D24        3.13879   0.00009   0.00078   0.00199   0.00270   3.14148
   D25        3.14002   0.00000   0.00220  -0.00105   0.00108   3.14111
   D26        0.00401  -0.00011  -0.00037  -0.00220  -0.00260   0.00141
   D27        0.00127  -0.00001  -0.00072   0.00066  -0.00012   0.00115
   D28       -3.13733  -0.00009  -0.00175  -0.00118  -0.00292  -3.14025
   D29        3.13730   0.00010   0.00183   0.00181   0.00355   3.14086
   D30       -0.00130   0.00002   0.00080  -0.00003   0.00075  -0.00055
   D31        0.00387  -0.00012  -0.00117  -0.00287  -0.00400  -0.00013
   D32        3.14051   0.00003   0.00001   0.00047   0.00056   3.14107
   D33       -3.14071  -0.00004  -0.00014  -0.00103  -0.00120   3.14128
   D34       -0.00408   0.00011   0.00104   0.00231   0.00337  -0.00071
         Item               Value     Threshold  Converged?
 Maximum Force            0.002852     0.000450     NO 
 RMS     Force            0.000682     0.000300     NO 
 Maximum Displacement     0.295816     0.001800     NO 
 RMS     Displacement     0.115005     0.001200     NO 
 Predicted change in Energy=-1.469532D-04
 GradGradGradGradGradGradGradGradGradGradGradGradGradGradGradGradGradGrad

 Leave Link  103 at Tue Sep 10 13:39:28 2019, MaxMem= 4294967296 cpu:       0.4
 (Enter /opt/g09gh/gaussian/g09/l202.exe)
                          Input orientation:                          
 ---------------------------------------------------------------------
 Center     Atomic      Atomic             Coordinates (Angstroms)
 Number     Number       Type             X           Y           Z
 ---------------------------------------------------------------------
      1          6           0        1.351191   -1.015396   -2.289939
      2          1           0        0.362375   -1.381993   -2.011242
      3          1           0        1.630973   -1.418001   -3.261663
      4          6           0        2.375996   -1.410457   -1.189597
      5          8           0        3.358644   -2.089131   -1.561919
      6          8           0        2.086651   -0.988807   -0.036157
      7          1           0        1.288917    0.072758   -2.354026
      8          6           0       -0.881865    0.747884    2.033036
      9          6           0       -0.518358    0.567706    0.696752
     10          6           0       -1.345083    1.095170   -0.296866
     11          6           0       -2.509064    1.789892    0.031163
     12          6           0       -2.861522    1.963062    1.369180
     13          6           0       -2.044913    1.440285    2.371673
     14          1           0        0.393342    0.024227    0.434194
     15          1           0       -1.070759    0.959761   -1.335048
     16          1           0       -3.140376    2.193433   -0.750450
     17          1           0       -3.764785    2.500550    1.629052
     18          1           0       -2.315713    1.573553    3.411666
     19          1           0       -0.246425    0.343933    2.810291
 ---------------------------------------------------------------------
                    Distance matrix (angstroms):
                    1          2          3          4          5
     1  C    0.000000
     2  H    1.090790   0.000000
     3  H    1.088401   1.781626   0.000000
     4  C    1.554687   2.174990   2.201948   0.000000
     5  O    2.390144   3.111199   2.514835   1.250927   0.000000
     6  O    2.370895   2.651166   3.285687   1.261718   2.270821
     7  H    1.091817   1.758489   1.778530   2.176594   3.095959
     8  C    5.175307   4.737160   6.248139   5.065318   6.241335
     9  C    3.862868   3.451123   4.922571   3.981046   5.214549
    10  C    3.961908   3.462778   4.895197   4.574010   5.819379
    11  C    5.306479   4.741038   6.186533   5.966264   7.212124
    12  C    6.325133   5.745447   7.284147   6.734951   7.981357
    13  C    6.268533   5.741971   7.308653   6.352465   7.558329
    14  H    3.069070   2.821094   4.155853   2.936994   4.152561
    15  H    3.267859   2.827530   4.082273   4.185596   5.382084
    16  H    5.730688   5.161641   6.489562   6.603881   7.825350
    17  H    7.341224   6.734934   8.269724   7.807045   9.054872
    18  H    7.256523   6.731666   8.310177   7.217206   8.387498
    19  H    5.514753   5.157193   6.595275   5.094514   6.167053
                    6          7          8          9         10
     6  O    0.000000
     7  H    2.671295   0.000000
     8  C    4.013693   4.941093   0.000000
     9  C    3.121852   3.580289   1.396515   0.000000
    10  C    4.023397   3.495024   2.400754   1.396055   0.000000
    11  C    5.370875   4.802327   2.782275   2.428921   1.394667
    12  C    5.930676   5.887415   2.415866   2.808842   2.414235
    13  C    5.363576   5.942792   1.395269   2.428399   2.780282
    14  H    2.028488   2.928922   2.169360   1.093391   2.168753
    15  H    3.931065   2.719037   3.380023   2.141744   1.082317
    16  H    6.161061   5.165981   3.865007   3.407691   2.152905
    17  H    7.013404   6.877426   3.397980   3.891575   3.396942
    18  H    6.150933   6.963400   2.153665   3.407780   3.863183
    19  H    3.914295   5.394533   1.082167   2.142678   3.380212
                   11         12         13         14         15
    11  C    0.000000
    12  C    1.394454   0.000000
    13  C    2.411566   1.394682   0.000000
    14  H    3.421106   3.902232   3.421130   0.000000
    15  H    2.150435   3.395039   3.862597   2.479724   0.000000
    16  H    1.082736   2.150270   3.393364   4.312308   2.479318
    17  H    2.152933   1.082733   2.152581   4.984965   4.291584
    18  H    3.392932   2.149738   1.082903   4.313320   4.945497
    19  H    3.864439   3.396632   2.151495   2.481401   4.271136
                   16         17         18         19
    16  H    0.000000
    17  H    2.479161   0.000000
    18  H    4.288068   2.477265   0.000000
    19  H    4.947169   4.292456   2.481042   0.000000
 Symmetry turned off by external request.
 Stoichiometry    C8H9O2(1-)
 Framework group  C1[X(C8H9O2)]
 Deg. of freedom    51
 Full point group                 C1      NOp   1
 Rotational constants (GHZ):      3.6718649      0.4672267      0.4164025
 Leave Link  202 at Tue Sep 10 13:39:29 2019, MaxMem= 4294967296 cpu:       0.1
 (Enter /opt/g09gh/gaussian/g09/l122.exe)
 Restoring MOs from calculation   1 to rwf.
 Leave Link  122 at Tue Sep 10 13:39:29 2019, MaxMem= 4294967296 cpu:       0.0
 (Enter /opt/g09gh/gaussian/g09/l301.exe)
 Basis read from rwf:  (5D, 7F)
 No pseudopotential information found on rwf file.
 Integral buffers will be    131072 words long.
 Raffenetti 1 integral format.
 Two-electron integral symmetry is turned off.
   426 basis functions,   673 primitive gaussians,   485 cartesian basis functions
    37 alpha electrons       37 beta electrons
       nuclear repulsion energy       449.6193968899 Hartrees.
 IExCor=    0 DFT=F Ex=HF Corr=None ExCW=0 ScaHFX=  1.000000
 ScaDFX=  1.000000  1.000000  1.000000  1.000000 ScalE2=  1.000000  1.000000
 IRadAn=      0 IRanWt=     -1 IRanGd=            0 ICorTp=0
 NAtoms=   19 NActive=   19 NUniq=   19 SFac= 7.50D-01 NAtFMM=   80 NAOKFM=F Big=F
 No density basis found on file   718.
 Leave Link  301 at Tue Sep 10 13:39:29 2019, MaxMem= 4294967296 cpu:       0.8
 (Enter /opt/g09gh/gaussian/g09/l302.exe)
 NPDir=0 NMtPBC=     1 NCelOv=     1 NCel=       1 NClECP=     1 NCelD=      1
         NCelK=      1 NCelE2=     1 NClLst=     1 CellRange=     0.0.
 One-electron integrals computed using PRISM.
 NBasis=   426 RedAO= T  NBF=   426
 NBsUse=   426 1.00D-06 NBFU=   426
 Leave Link  302 at Tue Sep 10 13:39:29 2019, MaxMem= 4294967296 cpu:       3.4
 (Enter /opt/g09gh/gaussian/g09/l303.exe)
 DipDrv:  MaxL=1.
 Leave Link  303 at Tue Sep 10 13:39:30 2019, MaxMem= 4294967296 cpu:       0.6
 (Enter /opt/g09gh/gaussian/g09/l401.exe)
 Initial guess read from the read-write file.
 B after Tr=     0.000000    0.000000    0.000000
         Rot=    1.000000    0.000000    0.000000    0.000000 Ang=   0.00 deg.
 Guess basis will be translated and rotated to current coordinates.
 Generating alternative initial guess.
 Harris functional with IExCor=  205 diagonalized for initial guess.
 ExpMin= 1.03D-01 ExpMax= 1.53D+04 ExpMxC= 5.22D+02 IAcc=1 IRadAn=         1 AccDes= 0.00D+00
 HarFok:  IExCor=  205 AccDes= 0.00D+00 IRadAn=         1 IDoV= 1
 ScaDFX=  1.000000  1.000000  1.000000  1.000000
 FoFCou: FMM=F IPFlag=           0 FMFlag=      100000 FMFlg1=           0
         NFxFlg=           0 DoJE=T BraDBF=F KetDBF=T FulRan=T
         Omega=  0.000000  0.000000  1.000000  0.000000  0.000000 ICntrl=     500 IOpCl=  0
         NMat0=    1 NMatS0=    1 NMatT0=    0 NMatD0=    1 NMtDS0=    0 NMtDT0=    0
         I1Cent=           4 NGrid=           0.
 Symmetry not used in FoFCou.
 Harris En= -458.953896161562    
 Leave Link  401 at Tue Sep 10 13:39:31 2019, MaxMem= 4294967296 cpu:      11.0
 (Enter /opt/g09gh/gaussian/g09/l502.exe)
 Closed shell SCF:
 Requested convergence on RMS density matrix=1.00D-08 within  64 cycles.
 Requested convergence on MAX density matrix=1.00D-06.
 Requested convergence on             energy=1.00D-06.
 No special actions if energy rises.
 Using DIIS extrapolation, IDIIS=  1040.
 Two-electron integral symmetry not used.
 IEnd=      718041 IEndB=      718041 NGot=  4294967296 MDV=  4294489190
 LenX=  4294489190 LenY=  4294253480
 Fock matrices will be formed incrementally for  20 cycles.
 Integral accuracy reduced to 1.0D-05 until final iterations.

 Cycle   1  Pass 0  IDiag  1:
 FoFCou: FMM=F IPFlag=           0 FMFlag=      100000 FMFlg1=           0
         NFxFlg=           0 DoJE=F BraDBF=F KetDBF=F FulRan=T
         Omega=  0.000000  0.000000  1.000000  0.000000  0.000000 ICntrl=       0 IOpCl=  0
         NMat0=    1 NMatS0=    1 NMatT0=    0 NMatD0=    1 NMtDS0=    0 NMtDT0=    0
         I1Cent=           0 NGrid=           0.
 Symmetry not used in FoFCou.
 E= -458.093011565419    
 DIIS: error= 7.98D-03 at cycle   1 NSaved=   1.
 NSaved= 1 IEnMin= 1 EnMin= -458.093011565419     IErMin= 1 ErrMin= 7.98D-03
 ErrMax= 7.98D-03 EMaxC= 1.00D-01 BMatC= 1.24D-02 BMatP= 1.24D-02
 IDIUse=3 WtCom= 9.20D-01 WtEn= 7.98D-02
 Coeff-Com:  0.100D+01
 Coeff-En:   0.100D+01
 Coeff:      0.100D+01
 Gap=     0.523 Goal=   None    Shift=    0.000
 GapD=    0.523 DampG=2.000 DampE=1.000 DampFc=2.0000 IDamp=-1.
 RMSDP=2.79D-04 MaxDP=1.02D-02              OVMax= 1.87D-02

 Cycle   2  Pass 0  IDiag  1:
 RMSU=  1.97D-04    CP:  1.00D+00
 E= -458.105866762953     Delta-E=       -0.012855197534 Rises=F Damp=F
 DIIS: error= 1.44D-03 at cycle   2 NSaved=   2.
 NSaved= 2 IEnMin= 2 EnMin= -458.105866762953     IErMin= 2 ErrMin= 1.44D-03
 ErrMax= 1.44D-03 EMaxC= 1.00D-01 BMatC= 6.80D-04 BMatP= 1.24D-02
 IDIUse=3 WtCom= 9.86D-01 WtEn= 1.44D-02
 Coeff-Com: -0.224D+00 0.122D+01
 Coeff-En:   0.000D+00 0.100D+01
 Coeff:     -0.221D+00 0.122D+01
 Gap=     0.430 Goal=   None    Shift=    0.000
 RMSDP=7.15D-05 MaxDP=2.07D-03 DE=-1.29D-02 OVMax= 7.19D-03

 Cycle   3  Pass 0  IDiag  1:
 RMSU=  3.63D-05    CP:  1.00D+00  1.18D+00
 E= -458.106895283555     Delta-E=       -0.001028520602 Rises=F Damp=F
 DIIS: error= 3.41D-04 at cycle   3 NSaved=   3.
 NSaved= 3 IEnMin= 3 EnMin= -458.106895283555     IErMin= 3 ErrMin= 3.41D-04
 ErrMax= 3.41D-04 EMaxC= 1.00D-01 BMatC= 7.77D-05 BMatP= 6.80D-04
 IDIUse=3 WtCom= 9.97D-01 WtEn= 3.41D-03
 Coeff-Com: -0.828D-01 0.334D+00 0.749D+00
 Coeff-En:   0.000D+00 0.000D+00 0.100D+01
 Coeff:     -0.825D-01 0.333D+00 0.750D+00
 Gap=     0.429 Goal=   None    Shift=    0.000
 RMSDP=2.10D-05 MaxDP=8.92D-04 DE=-1.03D-03 OVMax= 2.02D-03

 Cycle   4  Pass 0  IDiag  1:
 RMSU=  1.40D-05    CP:  1.00D+00  1.20D+00  1.02D+00
 E= -458.106965016047     Delta-E=       -0.000069732492 Rises=F Damp=F
 DIIS: error= 1.39D-04 at cycle   4 NSaved=   4.
 NSaved= 4 IEnMin= 4 EnMin= -458.106965016047     IErMin= 4 ErrMin= 1.39D-04
 ErrMax= 1.39D-04 EMaxC= 1.00D-01 BMatC= 9.23D-06 BMatP= 7.77D-05
 IDIUse=3 WtCom= 9.99D-01 WtEn= 1.39D-03
 Coeff-Com:  0.191D-01-0.135D+00 0.150D+00 0.966D+00
 Coeff-En:   0.000D+00 0.000D+00 0.000D+00 0.100D+01
 Coeff:      0.190D-01-0.135D+00 0.150D+00 0.966D+00
 Gap=     0.429 Goal=   None    Shift=    0.000
 RMSDP=1.09D-05 MaxDP=2.82D-04 DE=-6.97D-05 OVMax= 9.67D-04

 Cycle   5  Pass 0  IDiag  1:
 RMSU=  3.82D-06    CP:  1.00D+00  1.20D+00  1.19D+00  1.18D+00
 E= -458.106978119274     Delta-E=       -0.000013103227 Rises=F Damp=F
 DIIS: error= 4.35D-05 at cycle   5 NSaved=   5.
 NSaved= 5 IEnMin= 5 EnMin= -458.106978119274     IErMin= 5 ErrMin= 4.35D-05
 ErrMax= 4.35D-05 EMaxC= 1.00D-01 BMatC= 4.76D-07 BMatP= 9.23D-06
 IDIUse=1 WtCom= 1.00D+00 WtEn= 0.00D+00
 Coeff-Com:  0.329D-02-0.123D-01-0.374D-01-0.851D-02 0.105D+01
 Coeff:      0.329D-02-0.123D-01-0.374D-01-0.851D-02 0.105D+01
 Gap=     0.429 Goal=   None    Shift=    0.000
 RMSDP=3.79D-06 MaxDP=1.74D-04 DE=-1.31D-05 OVMax= 4.31D-04

 Initial convergence to 1.0D-05 achieved.  Increase integral accuracy.
 Cycle   6  Pass 1  IDiag  1:
 E= -458.106982644914     Delta-E=       -0.000004525639 Rises=F Damp=F
 DIIS: error= 4.84D-05 at cycle   1 NSaved=   1.
 NSaved= 1 IEnMin= 1 EnMin= -458.106982644914     IErMin= 1 ErrMin= 4.84D-05
 ErrMax= 4.84D-05 EMaxC= 1.00D-01 BMatC= 5.22D-07 BMatP= 5.22D-07
 IDIUse=1 WtCom= 1.00D+00 WtEn= 0.00D+00
 Coeff-Com:  0.100D+01
 Coeff:      0.100D+01
 Gap=     0.429 Goal=   None    Shift=    0.000
 RMSDP=3.79D-06 MaxDP=1.74D-04 DE=-4.53D-06 OVMax= 1.58D-04

 Cycle   7  Pass 1  IDiag  1:
 RMSU=  2.68D-05    CP:  1.00D+00
 E= -458.106983026196     Delta-E=       -0.000000381283 Rises=F Damp=F
 DIIS: error= 1.20D-05 at cycle   2 NSaved=   2.
 NSaved= 2 IEnMin= 2 EnMin= -458.106983026196     IErMin= 2 ErrMin= 1.20D-05
 ErrMax= 1.20D-05 EMaxC= 1.00D-01 BMatC= 6.12D-08 BMatP= 5.22D-07
 IDIUse=1 WtCom= 1.00D+00 WtEn= 0.00D+00
 Coeff-Com:  0.134D+00 0.866D+00
 Coeff:      0.134D+00 0.866D+00
 Gap=     0.429 Goal=   None    Shift=    0.000
 RMSDP=1.93D-06 MaxDP=5.85D-05 DE=-3.81D-07 OVMax= 9.27D-05

 Cycle   8  Pass 1  IDiag  1:
 RMSU=  5.39D-07    CP:  1.00D+00  1.05D+00
 E= -458.106983086581     Delta-E=       -0.000000060384 Rises=F Damp=F
 DIIS: error= 5.96D-06 at cycle   3 NSaved=   3.
 NSaved= 3 IEnMin= 3 EnMin= -458.106983086581     IErMin= 3 ErrMin= 5.96D-06
 ErrMax= 5.96D-06 EMaxC= 1.00D-01 BMatC= 1.79D-08 BMatP= 6.12D-08
 IDIUse=1 WtCom= 1.00D+00 WtEn= 0.00D+00
 Coeff-Com: -0.430D-01 0.294D+00 0.749D+00
 Coeff:     -0.430D-01 0.294D+00 0.749D+00
 Gap=     0.429 Goal=   None    Shift=    0.000
 RMSDP=5.59D-07 MaxDP=1.55D-05 DE=-6.04D-08 OVMax= 4.64D-05

 Cycle   9  Pass 1  IDiag  1:
 RMSU=  1.84D-07    CP:  1.00D+00  1.06D+00  1.13D+00
 E= -458.106983109477     Delta-E=       -0.000000022896 Rises=F Damp=F
 DIIS: error= 2.62D-06 at cycle   4 NSaved=   4.
 NSaved= 4 IEnMin= 4 EnMin= -458.106983109477     IErMin= 4 ErrMin= 2.62D-06
 ErrMax= 2.62D-06 EMaxC= 1.00D-01 BMatC= 1.95D-09 BMatP= 1.79D-08
 IDIUse=1 WtCom= 1.00D+00 WtEn= 0.00D+00
 Coeff-Com:  0.308D-02-0.273D+00-0.348D+00 0.162D+01
 Coeff:      0.308D-02-0.273D+00-0.348D+00 0.162D+01
 Gap=     0.429 Goal=   None    Shift=    0.000
 RMSDP=3.03D-07 MaxDP=1.05D-05 DE=-2.29D-08 OVMax= 6.41D-05

 Cycle  10  Pass 1  IDiag  1:
 RMSU=  1.25D-07    CP:  1.00D+00  1.06D+00  1.40D+00  1.53D+00
 E= -458.106983117192     Delta-E=       -0.000000007715 Rises=F Damp=F
 DIIS: error= 1.07D-06 at cycle   5 NSaved=   5.
 NSaved= 5 IEnMin= 5 EnMin= -458.106983117192     IErMin= 5 ErrMin= 1.07D-06
 ErrMax= 1.07D-06 EMaxC= 1.00D-01 BMatC= 3.00D-10 BMatP= 1.95D-09
 IDIUse=1 WtCom= 1.00D+00 WtEn= 0.00D+00
 Coeff-Com:  0.583D-02-0.137D+00-0.209D+00 0.621D+00 0.719D+00
 Coeff:      0.583D-02-0.137D+00-0.209D+00 0.621D+00 0.719D+00
 Gap=     0.429 Goal=   None    Shift=    0.000
 RMSDP=5.88D-08 MaxDP=1.89D-06 DE=-7.72D-09 OVMax= 1.28D-05

 Cycle  11  Pass 1  IDiag  1:
 RMSU=  2.30D-08    CP:  1.00D+00  1.06D+00  1.42D+00  1.62D+00  1.17D+00
 E= -458.106983117737     Delta-E=       -0.000000000545 Rises=F Damp=F
 DIIS: error= 3.16D-07 at cycle   6 NSaved=   6.
 NSaved= 6 IEnMin= 6 EnMin= -458.106983117737     IErMin= 6 ErrMin= 3.16D-07
 ErrMax= 3.16D-07 EMaxC= 1.00D-01 BMatC= 2.60D-11 BMatP= 3.00D-10
 IDIUse=1 WtCom= 1.00D+00 WtEn= 0.00D+00
 Coeff-Com: -0.256D-02 0.813D-01 0.122D+00-0.426D+00-0.245D+00 0.147D+01
 Coeff:     -0.256D-02 0.813D-01 0.122D+00-0.426D+00-0.245D+00 0.147D+01
 Gap=     0.429 Goal=   None    Shift=    0.000
 RMSDP=4.72D-08 MaxDP=1.31D-06 DE=-5.45D-10 OVMax= 7.51D-06

 Cycle  12  Pass 1  IDiag  1:
 RMSU=  1.51D-08    CP:  1.00D+00  1.06D+00  1.42D+00  1.62D+00  1.31D+00
                    CP:  1.45D+00
 E= -458.106983117852     Delta-E=       -0.000000000115 Rises=F Damp=F
 DIIS: error= 1.26D-07 at cycle   7 NSaved=   7.
 NSaved= 7 IEnMin= 7 EnMin= -458.106983117852     IErMin= 7 ErrMin= 1.26D-07
 ErrMax= 1.26D-07 EMaxC= 1.00D-01 BMatC= 4.00D-12 BMatP= 2.60D-11
 IDIUse=1 WtCom= 1.00D+00 WtEn= 0.00D+00
 Coeff-Com: -0.157D-02 0.417D-01 0.643D-01-0.203D+00-0.174D+00 0.339D+00
 Coeff-Com:  0.934D+00
 Coeff:     -0.157D-02 0.417D-01 0.643D-01-0.203D+00-0.174D+00 0.339D+00
 Coeff:      0.934D+00
 Gap=     0.429 Goal=   None    Shift=    0.000
 RMSDP=1.03D-08 MaxDP=3.82D-07 DE=-1.15D-10 OVMax= 2.26D-06

 Cycle  13  Pass 1  IDiag  1:
 RMSU=  3.15D-09    CP:  1.00D+00  1.06D+00  1.42D+00  1.63D+00  1.32D+00
                    CP:  1.59D+00  1.32D+00
 E= -458.106983117856     Delta-E=       -0.000000000005 Rises=F Damp=F
 DIIS: error= 5.22D-08 at cycle   8 NSaved=   8.
 NSaved= 8 IEnMin= 8 EnMin= -458.106983117856     IErMin= 8 ErrMin= 5.22D-08
 ErrMax= 5.22D-08 EMaxC= 1.00D-01 BMatC= 3.33D-13 BMatP= 4.00D-12
 IDIUse=1 WtCom= 1.00D+00 WtEn= 0.00D+00
 Coeff-Com:  0.325D-03-0.105D-01-0.155D-01 0.547D-01 0.297D-01-0.197D+00
 Coeff-Com:  0.168D-01 0.112D+01
 Coeff:      0.325D-03-0.105D-01-0.155D-01 0.547D-01 0.297D-01-0.197D+00
 Coeff:      0.168D-01 0.112D+01
 Gap=     0.429 Goal=   None    Shift=    0.000
 RMSDP=8.27D-09 MaxDP=2.86D-07 DE=-4.89D-12 OVMax= 5.84D-07

 SCF Done:  E(RHF) =  -458.106983118     A.U. after   13 cycles
             Convg  =    0.8267D-08             -V/T =  2.0012
 KE= 4.575401421775D+02 PE=-1.984737799551D+03 EE= 6.194712773658D+02
 Leave Link  502 at Tue Sep 10 13:41:55 2019, MaxMem= 4294967296 cpu:    1151.7
 (Enter /opt/g09gh/gaussian/g09/l801.exe)
 ExpMin= 1.03D-01 ExpMax= 1.53D+04 ExpMxC= 5.22D+02 IAcc=1 IRadAn=         1 AccDes= 0.00D+00
 HarFok:  IExCor=  205 AccDes= 0.00D+00 IRadAn=         1 IDoV=-2
 ScaDFX=  1.000000  1.000000  1.000000  1.000000
 Largest valence mixing into a core orbital is  2.23D-04
 Largest core mixing into a valence orbital is  5.19D-05
 Range of M.O.s used for correlation:    11   426
 NBasis=   426 NAE=    37 NBE=    37 NFC=    10 NFV=     0
 NROrb=    416 NOA=    27 NOB=    27 NVA=   389 NVB=   389

 **** Warning!!: The largest alpha MO coefficient is  0.30823182D+02

 Leave Link  801 at Tue Sep 10 13:41:55 2019, MaxMem= 4294967296 cpu:       0.6
 (Enter /opt/g09gh/gaussian/g09/l906.exe)
 Frozen-core derivative calculation, NFC=  10 NFV=   0.
 FulOut=F Deriv=T AODrv=T NAtomX=    19
   MMem=          93  MDisk=          27 MDiskD=          27
  W3Min=     7644570 MinDsk=    10770925 NBas6D=         485
 NBas2D=      118884    NTT=      117855    LW2=     3500000
    MDV=  4292985706 MDiskM=       44236 NBas2p=       94033
 Fully direct method using O(ONN) memory.
 IMap=   1   2   3   4   5   6   7   8   9  10  11  12  13  14  15  16  17  18  19  20
 IMap=  21  22  23  24  25  26  27  28  29  30  31  32  33  34  35  36  37
 JobTyp=1 Pass  1:  I=  11 to  20 NPSUse=  8 ParTrn=T ParDer=T DoDerP=T.
