 Entering Gaussian System, Link 0=g09
 Input=benzene_H2S_dimer.com
 Output=benzene_H2S_dimer.out
 Initial command:
 /opt/g09gh/gaussian/g09/l1.exe /scratch/xy3866/Gau-57445.inp -scrdir=/scratch/xy3866/
 Entering Link 1 = /opt/g09gh/gaussian/g09/l1.exe PID=     57446.
  
 Copyright (c) 1988,1990,1992,1993,1995,1998,2003,2009, Gaussian, Inc.
                  All Rights Reserved.
  
 This is part of the Gaussian(R) 09 program.  It is based on
 the Gaussian(R) 03 system (copyright 2003, Gaussian, Inc.),
 the Gaussian(R) 98 system (copyright 1998, Gaussian, Inc.),
 the Gaussian(R) 94 system (copyright 1995, Gaussian, Inc.),
 the Gaussian 92(TM) system (copyright 1992, Gaussian, Inc.),
 the Gaussian 90(TM) system (copyright 1990, Gaussian, Inc.),
 the Gaussian 88(TM) system (copyright 1988, Gaussian, Inc.),
 the Gaussian 86(TM) system (copyright 1986, Carnegie Mellon
 University), and the Gaussian 82(TM) system (copyright 1983,
 Carnegie Mellon University). Gaussian is a federally registered
 trademark of Gaussian, Inc.
  
 This software contains proprietary and confidential information,
 including trade secrets, belonging to Gaussian, Inc.
  
 This software is provided under written license and may be
 used, copied, transmitted, or stored only in accord with that
 written license.
  
 The following legend is applicable only to US Government
 contracts under FAR:
  
                    RESTRICTED RIGHTS LEGEND
  
 Use, reproduction and disclosure by the US Government is
 subject to restrictions as set forth in subparagraphs (a)
 and (c) of the Commercial Computer Software - Restricted
 Rights clause in FAR 52.227-19.
  
 Gaussian, Inc.
 340 Quinnipiac St., Bldg. 40, Wallingford CT 06492
  
  
 ---------------------------------------------------------------
 Warning -- This program may not be used in any manner that
 competes with the business of Gaussian, Inc. or will provide
 assistance to any competitor of Gaussian, Inc.  The licensee
 of this program is prohibited from giving any competitor of
 Gaussian, Inc. access to this program.  By using this program,
 the user acknowledges that Gaussian, Inc. is engaged in the
 business of creating and licensing software in the field of
 computational chemistry and represents and warrants to the
 licensee that it is not a competitor of Gaussian, Inc. and that
 it will not use this program in any manner prohibited above.
 ---------------------------------------------------------------
  

 Cite this work as:
 Gaussian 09, Revision A.02,
 M. J. Frisch, G. W. Trucks, H. B. Schlegel, G. E. Scuseria, 
 M. A. Robb, J. R. Cheeseman, G. Scalmani, V. Barone, B. Mennucci, 
 G. A. Petersson, H. Nakatsuji, M. Caricato, X. Li, H. P. Hratchian, 
 A. F. Izmaylov, J. Bloino, G. Zheng, J. L. Sonnenberg, M. Hada, 
 M. Ehara, K. Toyota, R. Fukuda, J. Hasegawa, M. Ishida, T. Nakajima, 
 Y. Honda, O. Kitao, H. Nakai, T. Vreven, J. A. Montgomery, Jr., 
 J. E. Peralta, F. Ogliaro, M. Bearpark, J. J. Heyd, E. Brothers, 
 K. N. Kudin, V. N. Staroverov, R. Kobayashi, J. Normand, 
 K. Raghavachari, A. Rendell, J. C. Burant, S. S. Iyengar, J. Tomasi, 
 M. Cossi, N. Rega, J. M. Millam, M. Klene, J. E. Knox, J. B. Cross, 
 V. Bakken, C. Adamo, J. Jaramillo, R. Gomperts, R. E. Stratmann, 
 O. Yazyev, A. J. Austin, R. Cammi, C. Pomelli, J. W. Ochterski, 
 R. L. Martin, K. Morokuma, V. G. Zakrzewski, G. A. Voth, 
 P. Salvador, J. J. Dannenberg, S. Dapprich, A. D. Daniels, 
 O. Farkas, J. B. Foresman, J. V. Ortiz, J. Cioslowski, 
 and D. J. Fox, Gaussian, Inc., Wallingford CT, 2009.
 
 ******************************************
 Gaussian 09:  EM64L-G09RevA.02 11-Jun-2009
                 9-Sep-2019 
 ******************************************
 %NoSave
 %chk=benzene_H2S_dimer.chk
 %nproc=8
 Will use up to    8 processors via shared memory.
 %Mem=32GB
 ----------------------------------------------------------------------
 #p MP2/cc-pvtz counterpoise=2 IOP(5/13=1) scf=tight Symmetry=None MaxD
 isk=100GB Opt=tight
 ----------------------------------------------------------------------
 1/7=10,18=20,19=15,38=1,62=2/1,3;
 2/9=110,12=2,15=1,17=6,18=5,40=1/2;
 1/7=10,18=20,19=15,38=1,53=5172,62=2,63=100/22;
 3/5=16,6=1,11=9,16=1,25=1,30=1,71=1/1,2,3;
 4//1;
 5/5=2,13=1,32=2,38=5/2;
 8/6=4,10=1/1;
 9/15=2,16=-3/6;
 10/5=1,31=1/2;
 6/7=2,8=2,9=2,10=2/1;
 7/7=1,12=2,30=1,33=-1/1,2,3,16;
 1/7=10,18=20,19=15,53=4052,62=2,63=101/22;
 3/5=7,6=11,11=9,16=1,25=1,30=1,71=1,82=7/1,2,3;
 4//1;
 5/5=2,13=1,32=2,38=5/2;
 8/6=4,10=1/1;
 9/15=2,16=-3/6;
 10/5=1,31=1/2;
 6/7=2,8=2,9=2,10=2/1;
 7/7=1,12=2,30=1,33=-1/1,2,3,16;
 1/7=10,18=20,19=15,53=3042,62=2,63=102/22;
 3/5=7,6=11,11=9,16=1,25=1,30=1,71=1,82=7/1,2,3;
 4//1;
 5/5=2,13=1,32=2,38=5/2;
 8/6=4,10=1/1;
 9/15=2,16=-3/6;
 10/5=1,31=1/2;
 6/7=2,8=2,9=2,10=2/1;
 7/7=1,12=2,30=1,33=-1/1,2,3,16;
 1/7=10,18=20,19=15,53=2032,62=2,63=103/22;
 3/5=7,6=11,11=9,16=1,25=1,30=1,71=1,82=7/1,2,3;
 4//1;
 5/5=2,13=1,32=2,38=5/2;
 8/6=4,10=1/1;
 9/15=2,16=-3/6;
 10/5=1,31=1/2;
 6/7=2,8=2,9=2,10=2/1;
 7/7=1,12=2,30=1,33=-1/1,2,3,16;
 1/7=10,18=20,19=15,53=1022,62=2,63=104/22;
 3/5=7,6=11,11=9,16=1,25=1,30=1,71=1,82=7/1,2,3;
 4//1;
 5/5=2,13=1,32=2,38=5/2;
 8/6=4,10=1/1;
 9/15=2,16=-3/6;
 10/5=1,31=1/2;
 6/7=2,8=2,9=2,10=2/1;
 7/7=1,12=2,30=1,33=-1/1,2,3,16;
 1/7=10,18=20,19=15,53=5015,62=2,63=105/22;
 7/9=1,44=-1/16;
 1/7=10,18=20,19=15,62=2,63=100/3(2);
 2/9=110,15=1/2;
 99//99;
 2/9=110,15=1/2;
 1/7=10,18=20,19=15,53=5173,62=2,63=100/22;
 3/5=7,6=11,11=9,16=1,25=1,30=1,71=1,82=7/1,2,3;
 4/5=5,16=3/1;
 5/5=2,13=1,32=2,38=5/2;
 8/6=4,10=1/1;
 9/15=2,16=-3/6;
 10/5=1,31=1/2;
 7/7=1,12=2,30=1,33=-1/1,2,3,16;
 1/7=10,18=20,19=15,53=4053,62=2,63=101/22;
 3/5=7,6=11,11=9,16=1,25=1,30=1,71=1,82=7/1,2,3;
 4/5=5,16=3/1;
 5/5=2,13=1,32=2,38=5/2;
 8/6=4,10=1/1;
 9/15=2,16=-3/6;
 10/5=1,31=1/2;
 7/7=1,12=2,30=1,33=-1/1,2,3,16;
 1/7=10,18=20,19=15,53=3043,62=2,63=102/22;
 3/5=7,6=11,11=9,16=1,25=1,30=1,71=1,82=7/1,2,3;
 4/5=5,16=3/1;
 5/5=2,13=1,32=2,38=5/2;
 8/6=4,10=1/1;
 9/15=2,16=-3/6;
 10/5=1,31=1/2;
 7/7=1,12=2,30=1,33=-1/1,2,3,16;
 1/7=10,18=20,19=15,53=2033,62=2,63=103/22;
 3/5=7,6=11,11=9,16=1,25=1,30=1,71=1,82=7/1,2,3;
 4/5=5,16=3/1;
 5/5=2,13=1,32=2,38=5/2;
 8/6=4,10=1/1;
 9/15=2,16=-3/6;
 10/5=1,31=1/2;
 7/7=1,12=2,30=1,33=-1/1,2,3,16;
 1/7=10,18=20,19=15,53=1024,62=2,63=104/22;
 3/5=7,6=11,11=9,16=1,25=1,30=1,71=1,82=7/1,2,3;
 4/5=5,16=3/1;
 5/5=2,13=1,32=2,38=5/2;
 8/6=4,10=1/1;
 9/15=2,16=-3/6;
 10/5=1,31=1/2;
 7/7=1,12=2,30=1,33=-1/1,2,3,16;
 1/7=10,18=20,19=15,53=5015,62=2,63=105/22;
 7/9=1,44=-1/16;
 1/7=10,18=20,19=15,62=2,63=100/3(-43);
 2/9=110,15=1/2;
 6/7=2,8=2,9=2,10=2/1;
 99//99;
 Leave Link    1 at Mon Sep  9 10:37:16 2019, MaxMem= 4294967296 cpu:       0.3
 (Enter /opt/g09gh/gaussian/g09/l101.exe)
 ---------
 Opt=tight
 ---------
 Symbolic Z-matrix:
 Charge =  0 Multiplicity = 1 in supermolecule
 Charge =  0 Multiplicity = 1 in fragment  1.
 Charge =  0 Multiplicity = 1 in fragment  2.
 C(Fragment=1)         0.       -1.3915    0.9541 
 C(Fragment=1)         1.20507  -0.69575   0.9541 
 C(Fragment=1)         1.20507   0.69575   0.9541 
 C(Fragment=1)         0.        1.3915    0.9541 
 C(Fragment=1)        -1.20507   0.69575   0.9541 
 C(Fragment=1)        -1.20507  -0.69575   0.9541 
 H(Fragment=1)         0.       -2.4715    0.9541 
 H(Fragment=1)         2.14038  -1.23575   0.9541 
 H(Fragment=1)         2.14038   1.23575   0.9541 
 H(Fragment=1)         0.        2.4715    0.9541 
 H(Fragment=1)        -2.14038   1.23575   0.9541 
 H(Fragment=1)        -2.14038  -1.23575   0.9541 
 S(Fragment=2)         0.        0.       -2.2459 
 H(Fragment=2)         0.        0.96172  -1.31912 
 H(Fragment=2)         0.       -0.96172  -1.31912 
 
 NAtoms=     15 NQM=     15 NQMF=      0 NMic=      0 NMicF=      0 NTot=     15.
                    Isotopes and Nuclear Properties:
 (Nuclear quadrupole moments (NQMom) in fm**2, nuclear magnetic moments (NMagM)
  in nuclear magnetons)

  Atom         1           2           3           4           5           6           7           8           9          10
 IAtWgt=          12          12          12          12          12          12           1           1           1           1
 AtmWgt=  12.0000000  12.0000000  12.0000000  12.0000000  12.0000000  12.0000000   1.0078250   1.0078250   1.0078250   1.0078250
 NucSpn=           0           0           0           0           0           0           1           1           1           1
 AtZEff=   0.0000000   0.0000000   0.0000000   0.0000000   0.0000000   0.0000000   0.0000000   0.0000000   0.0000000   0.0000000
 NQMom=    0.0000000   0.0000000   0.0000000   0.0000000   0.0000000   0.0000000   0.0000000   0.0000000   0.0000000   0.0000000
 NMagM=    0.0000000   0.0000000   0.0000000   0.0000000   0.0000000   0.0000000   2.7928460   2.7928460   2.7928460   2.7928460

  Atom        11          12          13          14          15
 IAtWgt=           1           1          32           1           1
 AtmWgt=   1.0078250   1.0078250  31.9720718   1.0078250   1.0078250
 NucSpn=           1           1           0           1           1
 AtZEff=   0.0000000   0.0000000   0.0000000   0.0000000   0.0000000
 NQMom=    0.0000000   0.0000000   0.0000000   0.0000000   0.0000000
 NMagM=    2.7928460   2.7928460   0.0000000   2.7928460   2.7928460
 Leave Link  101 at Mon Sep  9 10:37:16 2019, MaxMem= 4294967296 cpu:       0.5
 (Enter /opt/g09gh/gaussian/g09/l103.exe)

 GradGradGradGradGradGradGradGradGradGradGradGradGradGradGradGradGradGrad
 Berny optimization.
 Initialization pass.
                           ----------------------------
                           !    Initial Parameters    !
                           ! (Angstroms and Degrees)  !
 --------------------------                            --------------------------
 ! Name  Definition              Value          Derivative Info.                !
 --------------------------------------------------------------------------------
 ! R1    R(1,2)                  1.3915         estimate D2E/DX2                !
 ! R2    R(1,6)                  1.3915         estimate D2E/DX2                !
 ! R3    R(1,7)                  1.08           estimate D2E/DX2                !
 ! R4    R(1,15)                 2.3135         estimate D2E/DX2                !
 ! R5    R(2,3)                  1.3915         estimate D2E/DX2                !
 ! R6    R(2,8)                  1.08           estimate D2E/DX2                !
 ! R7    R(2,15)                 2.5866         estimate D2E/DX2                !
 ! R8    R(3,4)                  1.3915         estimate D2E/DX2                !
 ! R9    R(3,9)                  1.08           estimate D2E/DX2                !
 ! R10   R(3,14)                 2.5866         estimate D2E/DX2                !
 ! R11   R(4,5)                  1.3915         estimate D2E/DX2                !
 ! R12   R(4,10)                 1.08           estimate D2E/DX2                !
 ! R13   R(4,14)                 2.3135         estimate D2E/DX2                !
 ! R14   R(5,6)                  1.3915         estimate D2E/DX2                !
 ! R15   R(5,11)                 1.08           estimate D2E/DX2                !
 ! R16   R(5,14)                 2.5866         estimate D2E/DX2                !
 ! R17   R(6,12)                 1.08           estimate D2E/DX2                !
 ! R18   R(6,15)                 2.5866         estimate D2E/DX2                !
 ! R19   R(13,14)                1.3356         estimate D2E/DX2                !
 ! R20   R(13,15)                1.3356         estimate D2E/DX2                !
 ! A1    A(2,1,6)              120.0            estimate D2E/DX2                !
 ! A2    A(2,1,7)              120.0            estimate D2E/DX2                !
 ! A3    A(6,1,7)              120.0            estimate D2E/DX2                !
 ! A4    A(7,1,15)             100.7061         estimate D2E/DX2                !
 ! A5    A(1,2,3)              120.0            estimate D2E/DX2                !
 ! A6    A(1,2,8)              120.0            estimate D2E/DX2                !
 ! A7    A(3,2,8)              120.0            estimate D2E/DX2                !
 ! A8    A(3,2,15)              95.902          estimate D2E/DX2                !
 ! A9    A(8,2,15)             110.6134         estimate D2E/DX2                !
 ! A10   A(2,3,4)              120.0            estimate D2E/DX2                !
 ! A11   A(2,3,9)              120.0            estimate D2E/DX2                !
 ! A12   A(2,3,14)              95.902          estimate D2E/DX2                !
 ! A13   A(4,3,9)              120.0            estimate D2E/DX2                !
 ! A14   A(9,3,14)             110.6134         estimate D2E/DX2                !
 ! A15   A(3,4,5)              120.0            estimate D2E/DX2                !
 ! A16   A(3,4,10)             120.0            estimate D2E/DX2                !
 ! A17   A(5,4,10)             120.0            estimate D2E/DX2                !
 ! A18   A(10,4,14)            100.7061         estimate D2E/DX2                !
 ! A19   A(4,5,6)              120.0            estimate D2E/DX2                !
 ! A20   A(4,5,11)             120.0            estimate D2E/DX2                !
 ! A21   A(6,5,11)             120.0            estimate D2E/DX2                !
 ! A22   A(6,5,14)              95.902          estimate D2E/DX2                !
 ! A23   A(11,5,14)            110.6134         estimate D2E/DX2                !
 ! A24   A(1,6,5)              120.0            estimate D2E/DX2                !
 ! A25   A(1,6,12)             120.0            estimate D2E/DX2                !
 ! A26   A(5,6,12)             120.0            estimate D2E/DX2                !
 ! A27   A(5,6,15)              95.902          estimate D2E/DX2                !
 ! A28   A(12,6,15)            110.6134         estimate D2E/DX2                !
 ! A29   A(14,13,15)            92.12           estimate D2E/DX2                !
 ! A30   A(3,14,5)              55.5359         estimate D2E/DX2                !
 ! A31   A(3,14,13)            122.3977         estimate D2E/DX2                !
 ! A32   A(4,14,13)            144.6461         estimate D2E/DX2                !
 ! A33   A(5,14,13)            122.3977         estimate D2E/DX2                !
 ! A34   A(1,15,13)            144.6461         estimate D2E/DX2                !
 ! A35   A(2,15,6)              55.5359         estimate D2E/DX2                !
 ! A36   A(2,15,13)            122.3977         estimate D2E/DX2                !
 ! A37   A(6,15,13)            122.3977         estimate D2E/DX2                !
 ! D1    D(6,1,2,3)              0.0            estimate D2E/DX2                !
 ! D2    D(6,1,2,8)            180.0            estimate D2E/DX2                !
 ! D3    D(7,1,2,3)            180.0            estimate D2E/DX2                !
 ! D4    D(7,1,2,8)              0.0            estimate D2E/DX2                !
 ! D5    D(2,1,6,5)              0.0            estimate D2E/DX2                !
 ! D6    D(2,1,6,12)           180.0            estimate D2E/DX2                !
 ! D7    D(7,1,6,5)            180.0            estimate D2E/DX2                !
 ! D8    D(7,1,6,12)             0.0            estimate D2E/DX2                !
 ! D9    D(7,1,15,13)          180.0            estimate D2E/DX2                !
 ! D10   D(1,2,3,4)              0.0            estimate D2E/DX2                !
 ! D11   D(1,2,3,9)            180.0            estimate D2E/DX2                !
 ! D12   D(1,2,3,14)           -62.0712         estimate D2E/DX2                !
 ! D13   D(8,2,3,4)            180.0            estimate D2E/DX2                !
 ! D14   D(8,2,3,9)              0.0            estimate D2E/DX2                !
 ! D15   D(8,2,3,14)           117.9288         estimate D2E/DX2                !
 ! D16   D(15,2,3,4)            62.0712         estimate D2E/DX2                !
 ! D17   D(15,2,3,9)          -117.9288         estimate D2E/DX2                !
 ! D18   D(15,2,3,14)            0.0            estimate D2E/DX2                !
 ! D19   D(3,2,15,6)           -86.8799         estimate D2E/DX2                !
 ! D20   D(3,2,15,13)           22.6388         estimate D2E/DX2                !
 ! D21   D(8,2,15,6)           147.9552         estimate D2E/DX2                !
 ! D22   D(8,2,15,13)         -102.5261         estimate D2E/DX2                !
 ! D23   D(2,3,4,5)              0.0            estimate D2E/DX2                !
 ! D24   D(2,3,4,10)           180.0            estimate D2E/DX2                !
 ! D25   D(9,3,4,5)            180.0            estimate D2E/DX2                !
 ! D26   D(9,3,4,10)             0.0            estimate D2E/DX2                !
 ! D27   D(2,3,14,5)            86.8799         estimate D2E/DX2                !
 ! D28   D(2,3,14,13)          -22.6388         estimate D2E/DX2                !
 ! D29   D(9,3,14,5)          -147.9552         estimate D2E/DX2                !
 ! D30   D(9,3,14,13)          102.5261         estimate D2E/DX2                !
 ! D31   D(3,4,5,6)              0.0            estimate D2E/DX2                !
 ! D32   D(3,4,5,11)           180.0            estimate D2E/DX2                !
 ! D33   D(10,4,5,6)           180.0            estimate D2E/DX2                !
 ! D34   D(10,4,5,11)            0.0            estimate D2E/DX2                !
 ! D35   D(10,4,14,13)         180.0            estimate D2E/DX2                !
 ! D36   D(4,5,6,1)              0.0            estimate D2E/DX2                !
 ! D37   D(4,5,6,12)           180.0            estimate D2E/DX2                !
 ! D38   D(4,5,6,15)           -62.0712         estimate D2E/DX2                !
 ! D39   D(11,5,6,1)           180.0            estimate D2E/DX2                !
 ! D40   D(11,5,6,12)            0.0            estimate D2E/DX2                !
 ! D41   D(11,5,6,15)          117.9288         estimate D2E/DX2                !
 ! D42   D(14,5,6,1)            62.0712         estimate D2E/DX2                !
 ! D43   D(14,5,6,12)         -117.9288         estimate D2E/DX2                !
 ! D44   D(14,5,6,15)            0.0            estimate D2E/DX2                !
 ! D45   D(6,5,14,3)           -86.8799         estimate D2E/DX2                !
 ! D46   D(6,5,14,13)           22.6388         estimate D2E/DX2                !
 ! D47   D(11,5,14,3)          147.9552         estimate D2E/DX2                !
 ! D48   D(11,5,14,13)        -102.5261         estimate D2E/DX2                !
 ! D49   D(5,6,15,2)            86.8799         estimate D2E/DX2                !
 ! D50   D(5,6,15,13)          -22.6388         estimate D2E/DX2                !
 ! D51   D(12,6,15,2)         -147.9552         estimate D2E/DX2                !
 ! D52   D(12,6,15,13)         102.5261         estimate D2E/DX2                !
 ! D53   D(15,13,14,3)          33.489          estimate D2E/DX2                !
 ! D54   D(15,13,14,4)           0.0            estimate D2E/DX2                !
 ! D55   D(15,13,14,5)         -33.489          estimate D2E/DX2                !
 ! D56   D(14,13,15,1)           0.0            estimate D2E/DX2                !
 ! D57   D(14,13,15,2)         -33.489          estimate D2E/DX2                !
 ! D58   D(14,13,15,6)          33.489          estimate D2E/DX2                !
 --------------------------------------------------------------------------------
 Trust Radius=3.00D-01 FncErr=1.00D-07 GrdErr=1.00D-07
 Number of steps in this run= 100 maximum allowed number of steps= 100.
 GradGradGradGradGradGradGradGradGradGradGradGradGradGradGradGradGradGrad

 Leave Link  103 at Mon Sep  9 10:37:16 2019, MaxMem= 4294967296 cpu:       0.1
 (Enter /opt/g09gh/gaussian/g09/l202.exe)
                          Input orientation:                          
 ---------------------------------------------------------------------
 Center     Atomic      Atomic             Coordinates (Angstroms)
 Number     Number       Type             X           Y           Z
 ---------------------------------------------------------------------
      1          6           0        0.000000   -1.391500    0.954103
      2          6           0        1.205074   -0.695750    0.954103
      3          6           0        1.205074    0.695750    0.954103
      4          6           0        0.000000    1.391500    0.954103
      5          6           0       -1.205074    0.695750    0.954103
      6          6           0       -1.205074   -0.695750    0.954103
      7          1           0        0.000000   -2.471500    0.954103
      8          1           0        2.140382   -1.235750    0.954103
      9          1           0        2.140382    1.235750    0.954103
     10          1           0        0.000000    2.471500    0.954103
     11          1           0       -2.140382    1.235750    0.954103
     12          1           0       -2.140382   -1.235750    0.954103
     13         16           0        0.000000    0.000000   -2.245897
     14          1           0        0.000000    0.961721   -1.319118
     15          1           0        0.000000   -0.961721   -1.319118
 ---------------------------------------------------------------------
                    Distance matrix (angstroms):
                    1          2          3          4          5
     1  C    0.000000
     2  C    1.391500   0.000000
     3  C    2.410149   1.391500   0.000000
     4  C    2.783000   2.410149   1.391500   0.000000
     5  C    2.410149   2.783000   2.410149   1.391500   0.000000
     6  C    1.391500   2.410149   2.783000   2.410149   1.391500
     7  H    1.080000   2.146041   3.388757   3.863000   3.388757
     8  H    2.146041   1.080000   2.146041   3.388757   3.863000
     9  H    3.388757   2.146041   1.080000   2.146041   3.388757
    10  H    3.863000   3.388757   2.146041   1.080000   2.146041
    11  H    3.388757   3.863000   3.388757   2.146041   1.080000
    12  H    2.146041   3.388757   3.863000   3.388757   2.146041
    13  S    3.489452   3.489452   3.489452   3.489452   3.489452
    14  H    3.271878   3.060547   2.586596   2.313492   2.586596
    15  H    2.313492   2.586596   3.060547   3.271878   3.060547
                    6          7          8          9         10
     6  C    0.000000
     7  H    2.146041   0.000000
     8  H    3.388757   2.471500   0.000000
     9  H    3.863000   4.280764   2.471500   0.000000
    10  H    3.388757   4.943000   4.280764   2.471500   0.000000
    11  H    2.146041   4.280764   4.943000   4.280764   2.471500
    12  H    1.080000   2.471500   4.280764   4.943000   4.280764
    13  S    3.489452   4.043305   4.043305   4.043305   4.043305
    14  H    3.060547   4.117589   3.818069   3.134304   2.728913
    15  H    2.586596   2.728913   3.134304   3.818069   4.117589
                   11         12         13         14         15
    11  H    0.000000
    12  H    2.471500   0.000000
    13  S    4.043305   4.043305   0.000000
    14  H    3.134304   3.818069   1.335600   0.000000
    15  H    3.818069   3.134304   1.335600   1.923443   0.000000
 Symmetry turned off by external request.
 Stoichiometry    C6H8S
 Framework group  C2V[C2(S),SGV(C2H4),X(C4H4)]
 Deg. of freedom    12
 Full point group                 C2V     NOp   4
 Rotational constants (GHZ):      2.8358217      1.5598240      1.5509000
 Leave Link  202 at Mon Sep  9 10:37:16 2019, MaxMem= 4294967296 cpu:       0.2
 (Enter /opt/g09gh/gaussian/g09/l122.exe)
 Leave Link  122 at Mon Sep  9 10:37:16 2019, MaxMem= 4294967296 cpu:       0.0
 (Enter /opt/g09gh/gaussian/g09/l301.exe)
 Standard basis: CC-pVTZ (5D, 7F)
 Ernie: Thresh=  0.10000D-02 Tol=  0.10000D-05 Strict=F.
 Ernie:  31 primitive shells out of 280 were deleted.
 Integral buffers will be    131072 words long.
 Raffenetti 1 integral format.
 Two-electron integral symmetry is turned off.
   326 basis functions,   542 primitive gaussians,   369 cartesian basis functions
    30 alpha electrons       30 beta electrons
       nuclear repulsion energy       332.5086489944 Hartrees.
 IExCor=    0 DFT=F Ex=HF Corr=None ExCW=0 ScaHFX=  1.000000
 ScaDFX=  1.000000  1.000000  1.000000  1.000000 ScalE2=  1.000000  1.000000
 IRadAn=      0 IRanWt=     -1 IRanGd=            0 ICorTp=0
 NAtoms=   15 NActive=   15 NUniq=   15 SFac= 7.50D-01 NAtFMM=   80 NAOKFM=F Big=F
 Leave Link  301 at Mon Sep  9 10:37:17 2019, MaxMem= 4294967296 cpu:       0.5
 (Enter /opt/g09gh/gaussian/g09/l302.exe)
 NPDir=0 NMtPBC=     1 NCelOv=     1 NCel=       1 NClECP=     1 NCelD=      1
         NCelK=      1 NCelE2=     1 NClLst=     1 CellRange=     0.0.
 One-electron integrals computed using PRISM.
 NBasis=   326 RedAO= T  NBF=   326
 NBsUse=   326 1.00D-06 NBFU=   326
 Leave Link  302 at Mon Sep  9 10:37:17 2019, MaxMem= 4294967296 cpu:       2.9
 (Enter /opt/g09gh/gaussian/g09/l303.exe)
 DipDrv:  MaxL=1.
 Leave Link  303 at Mon Sep  9 10:37:18 2019, MaxMem= 4294967296 cpu:       1.5
 (Enter /opt/g09gh/gaussian/g09/l401.exe)
 Harris functional with IExCor=  205 diagonalized for initial guess.
 ExpMin= 1.03D-01 ExpMax= 3.74D+05 ExpMxC= 1.18D+03 IAcc=2 IRadAn=         0 AccDes= 0.00D+00
 HarFok:  IExCor=  205 AccDes= 0.00D+00 IRadAn=         0 IDoV= 1
 ScaDFX=  1.000000  1.000000  1.000000  1.000000
 FoFCou: FMM=F IPFlag=           0 FMFlag=      100000 FMFlg1=           0
         NFxFlg=           0 DoJE=T BraDBF=F KetDBF=T FulRan=T
         Omega=  0.000000  0.000000  1.000000  0.000000  0.000000 ICntrl=     500 IOpCl=  0
         NMat0=    1 NMatS0=    1 NMatT0=    0 NMatD0=    1 NMtDS0=    0 NMtDT0=    0
         I1Cent=           4 NGrid=           0.
 Symmetry not used in FoFCou.
 Harris En= -629.599620465004    
 Leave Link  401 at Mon Sep  9 10:37:20 2019, MaxMem= 4294967296 cpu:       9.2
 (Enter /opt/g09gh/gaussian/g09/l502.exe)
 Closed shell SCF:
 Requested convergence on RMS density matrix=1.00D-08 within  64 cycles.
 Requested convergence on MAX density matrix=1.00D-06.
 Requested convergence on             energy=1.00D-06.
 No special actions if energy rises.
 Using DIIS extrapolation, IDIIS=  1040.
 Two-electron integral symmetry not used.
 Keep R1 ints in memory in canonical form, NReq=2355834791.
 IEnd=      419217 IEndB=      419217 NGot=  4294967296 MDV=  1964599561
 LenX=  1964599561 LenY=  1964462959
 Symmetry not used in FoFDir.
 MinBra= 0 MaxBra= 3 Meth= 1.
 IRaf=       0 NMat=   1 IRICut=       1 DoRegI=T DoRafI=F ISym2E= 0 JSym2E=0.

 Cycle   1  Pass 1  IDiag  1:
 E= -629.145569592941    
 DIIS: error= 5.60D-02 at cycle   1 NSaved=   1.
 NSaved= 1 IEnMin= 1 EnMin= -629.145569592941     IErMin= 1 ErrMin= 5.60D-02
 ErrMax= 5.60D-02 EMaxC= 1.00D-01 BMatC= 6.20D-01 BMatP= 6.20D-01
 IDIUse=3 WtCom= 4.40D-01 WtEn= 5.60D-01
 Coeff-Com:  0.100D+01
 Coeff-En:   0.100D+01
 Coeff:      0.100D+01
 Gap=     0.588 Goal=   None    Shift=    0.000
 GapD=    0.588 DampG=2.000 DampE=0.500 DampFc=1.0000 IDamp=-1.
 RMSDP=1.66D-03 MaxDP=7.07D-02              OVMax= 1.46D-01

 Cycle   2  Pass 1  IDiag  1:
 E= -629.426906687627     Delta-E=       -0.281337094686 Rises=F Damp=F
 DIIS: error= 3.10D-02 at cycle   2 NSaved=   2.
 NSaved= 2 IEnMin= 2 EnMin= -629.426906687627     IErMin= 2 ErrMin= 3.10D-02
 ErrMax= 3.10D-02 EMaxC= 1.00D-01 BMatC= 5.24D-02 BMatP= 6.20D-01
 IDIUse=3 WtCom= 6.90D-01 WtEn= 3.10D-01
 Coeff-Com:  0.135D+00 0.865D+00
 Coeff-En:   0.000D+00 0.100D+01
 Coeff:      0.935D-01 0.906D+00
 Gap=     0.515 Goal=   None    Shift=    0.000
 RMSDP=6.62D-04 MaxDP=1.33D-02 DE=-2.81D-01 OVMax= 6.05D-02

 Cycle   3  Pass 1  IDiag  1:
 E= -629.468953174898     Delta-E=       -0.042046487271 Rises=F Damp=F
 DIIS: error= 1.11D-02 at cycle   3 NSaved=   3.
 NSaved= 3 IEnMin= 3 EnMin= -629.468953174898     IErMin= 3 ErrMin= 1.11D-02
 ErrMax= 1.11D-02 EMaxC= 1.00D-01 BMatC= 8.14D-03 BMatP= 5.24D-02
 IDIUse=3 WtCom= 8.89D-01 WtEn= 1.11D-01
 Coeff-Com: -0.193D-01 0.258D+00 0.762D+00
 Coeff-En:   0.000D+00 0.000D+00 0.100D+01
 Coeff:     -0.171D-01 0.229D+00 0.788D+00
 Gap=     0.453 Goal=   None    Shift=    0.000
 RMSDP=1.65D-04 MaxDP=3.91D-03 DE=-4.20D-02 OVMax= 1.85D-02

 Cycle   4  Pass 1  IDiag  1:
 E= -629.476698759361     Delta-E=       -0.007745584464 Rises=F Damp=F
 DIIS: error= 1.75D-03 at cycle   4 NSaved=   4.
 NSaved= 4 IEnMin= 4 EnMin= -629.476698759361     IErMin= 4 ErrMin= 1.75D-03
 ErrMax= 1.75D-03 EMaxC= 1.00D-01 BMatC= 9.95D-05 BMatP= 8.14D-03
 IDIUse=3 WtCom= 9.83D-01 WtEn= 1.75D-02
 Coeff-Com: -0.290D-02-0.784D-02 0.670D-01 0.944D+00
 Coeff-En:   0.000D+00 0.000D+00 0.000D+00 0.100D+01
 Coeff:     -0.285D-02-0.770D-02 0.658D-01 0.945D+00
 Gap=     0.440 Goal=   None    Shift=    0.000
 RMSDP=3.63D-05 MaxDP=9.35D-04 DE=-7.75D-03 OVMax= 3.19D-03

 Cycle   5  Pass 1  IDiag  1:
 E= -629.476828649149     Delta-E=       -0.000129889788 Rises=F Damp=F
 DIIS: error= 2.66D-04 at cycle   5 NSaved=   5.
 NSaved= 5 IEnMin= 5 EnMin= -629.476828649149     IErMin= 5 ErrMin= 2.66D-04
 ErrMax= 2.66D-04 EMaxC= 1.00D-01 BMatC= 5.50D-06 BMatP= 9.95D-05
 IDIUse=3 WtCom= 9.97D-01 WtEn= 2.66D-03
 Coeff-Com:  0.757D-03-0.133D-01-0.424D-01-0.264D-01 0.108D+01
 Coeff-En:   0.000D+00 0.000D+00 0.000D+00 0.000D+00 0.100D+01
 Coeff:      0.755D-03-0.133D-01-0.423D-01-0.264D-01 0.108D+01
 Gap=     0.440 Goal=   None    Shift=    0.000
 RMSDP=1.31D-05 MaxDP=3.20D-04 DE=-1.30D-04 OVMax= 8.69D-04

 Cycle   6  Pass 1  IDiag  1:
 E= -629.476839818655     Delta-E=       -0.000011169505 Rises=F Damp=F
 DIIS: error= 8.43D-05 at cycle   6 NSaved=   6.
 NSaved= 6 IEnMin= 6 EnMin= -629.476839818655     IErMin= 6 ErrMin= 8.43D-05
 ErrMax= 8.43D-05 EMaxC= 1.00D-01 BMatC= 3.69D-07 BMatP= 5.50D-06
 IDIUse=1 WtCom= 1.00D+00 WtEn= 0.00D+00
 Coeff-Com:  0.346D-03-0.166D-02-0.105D-01-0.614D-01 0.104D+00 0.969D+00
 Coeff:      0.346D-03-0.166D-02-0.105D-01-0.614D-01 0.104D+00 0.969D+00
 Gap=     0.440 Goal=   None    Shift=    0.000
 RMSDP=3.57D-06 MaxDP=1.28D-04 DE=-1.12D-05 OVMax= 4.06D-04

 Cycle   7  Pass 1  IDiag  1:
 E= -629.476840624703     Delta-E=       -0.000000806048 Rises=F Damp=F
 DIIS: error= 2.28D-05 at cycle   7 NSaved=   7.
 NSaved= 7 IEnMin= 7 EnMin= -629.476840624703     IErMin= 7 ErrMin= 2.28D-05
 ErrMax= 2.28D-05 EMaxC= 1.00D-01 BMatC= 2.19D-08 BMatP= 3.69D-07
 IDIUse=1 WtCom= 1.00D+00 WtEn= 0.00D+00
 Coeff-Com: -0.503D-04 0.781D-03 0.295D-02 0.704D-02-0.703D-01-0.504D-01
 Coeff-Com:  0.111D+01
 Coeff:     -0.503D-04 0.781D-03 0.295D-02 0.704D-02-0.703D-01-0.504D-01
 Coeff:      0.111D+01
 Gap=     0.440 Goal=   None    Shift=    0.000
 RMSDP=1.02D-06 MaxDP=3.93D-05 DE=-8.06D-07 OVMax= 1.02D-04

 Cycle   8  Pass 1  IDiag  1:
 E= -629.476840686054     Delta-E=       -0.000000061351 Rises=F Damp=F
 DIIS: error= 5.48D-06 at cycle   8 NSaved=   8.
 NSaved= 8 IEnMin= 8 EnMin= -629.476840686054     IErMin= 8 ErrMin= 5.48D-06
 ErrMax= 5.48D-06 EMaxC= 1.00D-01 BMatC= 1.67D-09 BMatP= 2.19D-08
 IDIUse=1 WtCom= 1.00D+00 WtEn= 0.00D+00
 Coeff-Com: -0.320D-04 0.117D-03 0.746D-03 0.460D-02-0.418D-02-0.761D-01
 Coeff-Com: -0.860D-01 0.116D+01
 Coeff:     -0.320D-04 0.117D-03 0.746D-03 0.460D-02-0.418D-02-0.761D-01
 Coeff:     -0.860D-01 0.116D+01
 Gap=     0.440 Goal=   None    Shift=    0.000
 RMSDP=3.32D-07 MaxDP=1.56D-05 DE=-6.14D-08 OVMax= 3.28D-05

 Cycle   9  Pass 1  IDiag  1:
 E= -629.476840691060     Delta-E=       -0.000000005007 Rises=F Damp=F
 DIIS: error= 8.05D-07 at cycle   9 NSaved=   9.
 NSaved= 9 IEnMin= 9 EnMin= -629.476840691060     IErMin= 9 ErrMin= 8.05D-07
 ErrMax= 8.05D-07 EMaxC= 1.00D-01 BMatC= 9.46D-11 BMatP= 1.67D-09
 IDIUse=1 WtCom= 1.00D+00 WtEn= 0.00D+00
 Coeff-Com: -0.241D-06-0.348D-04-0.115D-03-0.344D-04 0.432D-02-0.546D-02
 Coeff-Com: -0.778D-01 0.151D+00 0.928D+00
 Coeff:     -0.241D-06-0.348D-04-0.115D-03-0.344D-04 0.432D-02-0.546D-02
 Coeff:     -0.778D-01 0.151D+00 0.928D+00
 Gap=     0.440 Goal=   None    Shift=    0.000
 RMSDP=5.77D-08 MaxDP=2.21D-06 DE=-5.01D-09 OVMax= 4.46D-06

 Cycle  10  Pass 1  IDiag  1:
 E= -629.476840691219     Delta-E=       -0.000000000159 Rises=F Damp=F
 DIIS: error= 2.02D-07 at cycle  10 NSaved=  10.
 NSaved=10 IEnMin=10 EnMin= -629.476840691219     IErMin=10 ErrMin= 2.02D-07
 ErrMax= 2.02D-07 EMaxC= 1.00D-01 BMatC= 6.74D-12 BMatP= 9.46D-11
 IDIUse=1 WtCom= 1.00D+00 WtEn= 0.00D+00
 Coeff-Com:  0.210D-05-0.116D-04-0.632D-04-0.313D-03 0.826D-03 0.437D-02
 Coeff-Com: -0.366D-02-0.582D-01 0.119D+00 0.938D+00
 Coeff:      0.210D-05-0.116D-04-0.632D-04-0.313D-03 0.826D-03 0.437D-02
 Coeff:     -0.366D-02-0.582D-01 0.119D+00 0.938D+00
 Gap=     0.440 Goal=   None    Shift=    0.000
 RMSDP=1.77D-08 MaxDP=6.24D-07 DE=-1.59D-10 OVMax= 9.93D-07

 Cycle  11  Pass 1  IDiag  1:
 E= -629.476840691230     Delta-E=       -0.000000000011 Rises=F Damp=F
 DIIS: error= 6.90D-08 at cycle  11 NSaved=  11.
 NSaved=11 IEnMin=11 EnMin= -629.476840691230     IErMin=11 ErrMin= 6.90D-08
 ErrMax= 6.90D-08 EMaxC= 1.00D-01 BMatC= 4.46D-13 BMatP= 6.74D-12
 IDIUse=1 WtCom= 1.00D+00 WtEn= 0.00D+00
 Coeff-Com: -0.633D-07 0.358D-05 0.127D-04 0.136D-04-0.416D-03 0.347D-03
 Coeff-Com:  0.692D-02-0.145D-01-0.750D-01 0.233D-01 0.106D+01
 Coeff:     -0.633D-07 0.358D-05 0.127D-04 0.136D-04-0.416D-03 0.347D-03
 Coeff:      0.692D-02-0.145D-01-0.750D-01 0.233D-01 0.106D+01
 Gap=     0.440 Goal=   None    Shift=    0.000
 RMSDP=5.08D-09 MaxDP=2.59D-07 DE=-1.09D-11 OVMax= 3.73D-07

 SCF Done:  E(RHF) =  -629.476840691     A.U. after   11 cycles
             Convg  =    0.5075D-08             -V/T =  2.0002
 KE= 6.293356183296D+02 PE=-2.151626984168D+03 EE= 5.603058761529D+02
 Leave Link  502 at Mon Sep  9 10:39:04 2019, MaxMem= 4294967296 cpu:     556.7
 (Enter /opt/g09gh/gaussian/g09/l801.exe)
 ExpMin= 1.03D-01 ExpMax= 3.74D+05 ExpMxC= 1.18D+03 IAcc=3 IRadAn=         5 AccDes= 0.00D+00
 HarFok:  IExCor=  205 AccDes= 0.00D+00 IRadAn=         5 IDoV=-2
 ScaDFX=  1.000000  1.000000  1.000000  1.000000
 Largest valence mixing into a core orbital is  4.23D-04
 Largest core mixing into a valence orbital is  1.24D-04
 Range of M.O.s used for correlation:    12   326
 NBasis=   326 NAE=    30 NBE=    30 NFC=    11 NFV=     0
 NROrb=    315 NOA=    19 NOB=    19 NVA=   296 NVB=   296

 **** Warning!!: The largest alpha MO coefficient is  0.37802839D+02

 Leave Link  801 at Mon Sep  9 10:39:06 2019, MaxMem= 4294967296 cpu:       5.1
 (Enter /opt/g09gh/gaussian/g09/l906.exe)
 Frozen-core derivative calculation, NFC=  11 NFV=   0.
 FulOut=F Deriv=T AODrv=T NAtomX=    15
   MMem=         170  MDisk=          19 MDiskD=          19
  W3Min=     3608820 MinDsk=     5303453 NBas6D=         369
 NBas2D=       69024    NTT=       68265    LW2=     3500000
    MDV=  4293666754 MDiskM=       58152 NBas2p=       67899
 Fully direct method using O(ONN) memory.
 IMap=   1   2   3   4   5   6   7   8   9  10  11  12  13  14  15  16  17  18  19  20
 IMap=  21  22  23  24  25  26  27  28  29  30
 JobTyp=1 Pass  1:  I=  12 to  30 NPSUse=  8 ParTrn=T ParDer=T DoDerP=T.
 Spin components of T(2) and E(2):
     alpha-alpha T2 =       0.5550220969D-01 E2=     -0.1423457986D+00
     alpha-beta  T2 =       0.3013348842D+00 E2=     -0.8722419948D+00
     beta-beta   T2 =       0.5550220969D-01 E2=     -0.1423457986D+00
 The integrals were generated   1 times.
 ANorm=    0.1188418825D+01
 E2 =    -0.1156933592D+01 EUMP2 =    -0.63063377428330D+03
 Leave Link  906 at Mon Sep  9 10:42:50 2019, MaxMem= 4294967296 cpu:    1205.0
 (Enter /opt/g09gh/gaussian/g09/l1002.exe)
 Minotr:  Closed shell wavefunction.
          Computing MP2/KS-MP2 derivatives.
          Using Z-Vector for PSCF gradient.
          Skipping F1 and S1 gradient terms here.
          IDoAtm=111111111111111
          Frozen-core window.
          Direct CPHF calculation.
          Differentiating once with respect to electric field.
                with respect to dipole field.
          Differentiating once with respect to nuclear coordinates.
          Requested convergence is 1.0D-10 RMS, and 1.0D-09 maximum.
          NewPWx=F KeepS1=T KeepF1=T KeepIn=T MapXYZ=F SortEE=F KeepMc=T.
          MDV=    4294967142 using IRadAn=       0.
          Keep R1 ints in memory in canonical form, NReq=2332031403.
 Symmetry not used in FoFDir.
 MinBra= 0 MaxBra= 3 Meth= 1.
 IRaf=       0 NMat=   1 IRICut=       1 DoRegI=T DoRafI=F ISym2E= 0 JSym2E=0.
          Solving linear equations separately, MaxMat=       0.
          There are     1 degrees of freedom in the 1st order CPHF.  IDoFFX=0.
 LinEq1:  Iter=  0 NonCon=     1 RMS=2.23D-03 Max=4.95D-02
 AX will form     1 AO Fock derivatives at one time.
 LinEq1:  Iter=  1 NonCon=     1 RMS=6.15D-04 Max=1.78D-02
 LinEq1:  Iter=  2 NonCon=     1 RMS=1.63D-04 Max=3.35D-03
 LinEq1:  Iter=  3 NonCon=     1 RMS=4.48D-05 Max=2.13D-03
 LinEq1:  Iter=  4 NonCon=     1 RMS=8.72D-06 Max=2.62D-04
 LinEq1:  Iter=  5 NonCon=     1 RMS=2.14D-06 Max=5.99D-05
 LinEq1:  Iter=  6 NonCon=     1 RMS=4.51D-07 Max=8.82D-06
 LinEq1:  Iter=  7 NonCon=     1 RMS=1.12D-07 Max=2.49D-06
 LinEq1:  Iter=  8 NonCon=     1 RMS=3.15D-08 Max=8.06D-07
 LinEq1:  Iter=  9 NonCon=     1 RMS=8.15D-09 Max=1.63D-07
 LinEq1:  Iter= 10 NonCon=     1 RMS=2.53D-09 Max=6.89D-08
 LinEq1:  Iter= 11 NonCon=     1 RMS=5.02D-10 Max=1.64D-08
 LinEq1:  Iter= 12 NonCon=     1 RMS=1.18D-10 Max=3.35D-09
 LinEq1:  Iter= 13 NonCon=     0 RMS=1.74D-11 Max=4.68D-10
 Linear equations converged to 1.000D-10 1.000D-09 after    13 iterations.
 End of Minotr Frequency-dependent properties file   721 does not exist.
 End of Minotr Frequency-dependent properties file   722 does not exist.
 Leave Link 1002 at Mon Sep  9 10:45:02 2019, MaxMem= 4294967296 cpu:     706.6
 (Enter /opt/g09gh/gaussian/g09/l601.exe)
 Copying SCF densities to generalized density rwf, IOpCl= 0 IROHF=0.

 **********************************************************************

            Population analysis using the SCF density.

 **********************************************************************

 Alpha  occ. eigenvalues --  -91.92967 -11.24469 -11.24428 -11.24390 -11.24296
 Alpha  occ. eigenvalues --  -11.24264 -11.24217  -8.93405  -6.61541  -6.61471
 Alpha  occ. eigenvalues --   -6.61349  -1.16432  -1.02808  -1.02596  -0.95675
 Alpha  occ. eigenvalues --   -0.83534  -0.83504  -0.72113  -0.65391  -0.63025
 Alpha  occ. eigenvalues --   -0.59965  -0.59814  -0.56985  -0.53654  -0.50517
 Alpha  occ. eigenvalues --   -0.50459  -0.45172  -0.37365  -0.34733  -0.33439
 Alpha virt. eigenvalues --    0.10584   0.11475   0.13552   0.15828   0.16458
 Alpha virt. eigenvalues --    0.18596   0.19543   0.20225   0.20490   0.21559
 Alpha virt. eigenvalues --    0.31758   0.33176   0.34940   0.34957   0.36579
 Alpha virt. eigenvalues --    0.38307   0.39538   0.39872   0.41586   0.42744
 Alpha virt. eigenvalues --    0.42980   0.45969   0.46156   0.47285   0.47783
 Alpha virt. eigenvalues --    0.48150   0.48566   0.54298   0.55677   0.56814
 Alpha virt. eigenvalues --    0.57185   0.58193   0.58505   0.58655   0.60250
 Alpha virt. eigenvalues --    0.61480   0.63426   0.63578   0.64373   0.64401
 Alpha virt. eigenvalues --    0.65903   0.67050   0.67692   0.68511   0.71388
 Alpha virt. eigenvalues --    0.72304   0.74142   0.74628   0.74781   0.81841
 Alpha virt. eigenvalues --    0.84897   0.84942   0.87761   0.91859   0.92055
 Alpha virt. eigenvalues --    0.92497   0.93516   0.94439   0.97403   0.99149
 Alpha virt. eigenvalues --    1.00375   1.00582   1.04636   1.04857   1.05183
 Alpha virt. eigenvalues --    1.12376   1.13621   1.16470   1.20468   1.21307
 Alpha virt. eigenvalues --    1.21394   1.21891   1.24986   1.25014   1.28348
 Alpha virt. eigenvalues --    1.30027   1.30743   1.31960   1.33504   1.33710
 Alpha virt. eigenvalues --    1.38593   1.38862   1.40052   1.47989   1.48301
 Alpha virt. eigenvalues --    1.48499   1.48556   1.50273   1.50342   1.50874
 Alpha virt. eigenvalues --    1.51793   1.52649   1.54957   1.58166   1.60128
 Alpha virt. eigenvalues --    1.62176   1.62659   1.64871   1.66356   1.72736
 Alpha virt. eigenvalues --    1.72768   1.75207   1.76523   1.80005   1.82451
 Alpha virt. eigenvalues --    1.86935   1.88541   1.88923   1.89086   1.94028
 Alpha virt. eigenvalues --    2.00396   2.04850   2.08054   2.11627   2.13805
 Alpha virt. eigenvalues --    2.17678   2.17835   2.17901   2.20997   2.24516
 Alpha virt. eigenvalues --    2.24708   2.29497   2.31982   2.37865   2.41531
 Alpha virt. eigenvalues --    2.41737   2.45234   2.45420   2.50696   2.50994
 Alpha virt. eigenvalues --    2.53009   2.55761   2.59567   2.62224   2.62485
 Alpha virt. eigenvalues --    2.71263   2.75021   2.75177   2.77118   2.78495
 Alpha virt. eigenvalues --    2.78871   2.80494   2.80685   2.87570   2.89981
 Alpha virt. eigenvalues --    2.92523   2.92557   2.92899   2.94128   2.95215
 Alpha virt. eigenvalues --    2.99694   3.01345   3.03119   3.03623   3.04527
 Alpha virt. eigenvalues --    3.05173   3.06877   3.09498   3.13505   3.14938
 Alpha virt. eigenvalues --    3.15596   3.19199   3.24635   3.26968   3.28849
 Alpha virt. eigenvalues --    3.30284   3.30509   3.32614   3.35469   3.35858
 Alpha virt. eigenvalues --    3.37879   3.38133   3.38395   3.38640   3.39382
 Alpha virt. eigenvalues --    3.40479   3.42648   3.42826   3.44723   3.45275
 Alpha virt. eigenvalues --    3.47392   3.48148   3.49459   3.56902   3.57222
 Alpha virt. eigenvalues --    3.60890   3.62201   3.65086   3.65159   3.66907
 Alpha virt. eigenvalues --    3.67312   3.68338   3.68517   3.71282   3.71582
 Alpha virt. eigenvalues --    3.72925   3.74186   3.77103   3.78062   3.79704
 Alpha virt. eigenvalues --    3.90378   3.90899   3.91171   3.92522   4.04886
 Alpha virt. eigenvalues --    4.05252   4.05717   4.09688   4.09688   4.10031
 Alpha virt. eigenvalues --    4.11392   4.11797   4.12111   4.12907   4.13535
 Alpha virt. eigenvalues --    4.15081   4.15718   4.16417   4.16779   4.22372
 Alpha virt. eigenvalues --    4.22460   4.22478   4.25443   4.28565   4.32290
 Alpha virt. eigenvalues --    4.32889   4.35912   4.36622   4.38274   4.40192
 Alpha virt. eigenvalues --    4.41269   4.43989   4.44553   4.46747   4.49402
 Alpha virt. eigenvalues --    4.50204   4.51137   4.53453   4.53780   4.56186
 Alpha virt. eigenvalues --    4.56486   4.60293   4.64960   4.66176   4.66382
 Alpha virt. eigenvalues --    4.67358   4.67960   4.68908   4.71765   4.72655
 Alpha virt. eigenvalues --    4.72753   4.75145   4.80897   4.90156   4.90275
 Alpha virt. eigenvalues --    4.94487   5.03849   5.07607   5.07681   5.10760
 Alpha virt. eigenvalues --    5.10867   5.11497   5.12127   5.14412   5.17120
 Alpha virt. eigenvalues --    5.26713   5.30011   5.37155   5.37522   5.37526
 Alpha virt. eigenvalues --    5.38671   5.42299   5.42379   5.47277   5.53692
 Alpha virt. eigenvalues --    5.57426   5.74243   5.79238   5.82084   6.07533
 Alpha virt. eigenvalues --    6.07648   6.11302   6.27330   6.27768   6.37092
 Alpha virt. eigenvalues --    6.52642   6.54556   6.54851   6.86860   7.34436
 Alpha virt. eigenvalues --    9.75407  13.13922  13.33034  13.68547  13.72419
 Alpha virt. eigenvalues --   16.35638
          Condensed to atoms (all electrons):
              1          2          3          4          5          6
     1  C    4.970519   0.492048  -0.061815  -0.018276  -0.061815   0.492048
     2  C    0.492048   4.952098   0.506273  -0.061815  -0.016752  -0.065699
     3  C   -0.061815   0.506273   4.952098   0.492048  -0.065699  -0.016752
     4  C   -0.018276  -0.061815   0.492048   4.970519   0.492048  -0.061815
     5  C   -0.061815  -0.016752  -0.065699   0.492048   4.952098   0.506273
     6  C    0.492048  -0.065699  -0.016752  -0.061815   0.506273   4.952098
     7  H    0.441511  -0.042922   0.005126  -0.001193   0.005126  -0.042922
     8  H   -0.043299   0.438414  -0.041552   0.005126  -0.001101   0.005208
     9  H    0.005126  -0.041552   0.438414  -0.043299   0.005208  -0.001101
    10  H   -0.001193   0.005126  -0.042922   0.441511  -0.042922   0.005126
    11  H    0.005126  -0.001101   0.005208  -0.043299   0.438414  -0.041552
    12  H   -0.043299   0.005208  -0.001101   0.005126  -0.041552   0.438414
    13  S   -0.013539  -0.011573  -0.011573  -0.013539  -0.011573  -0.011573
    14  H    0.002804  -0.004851   0.002875  -0.007800   0.002875  -0.004851
    15  H   -0.007800   0.002875  -0.004851   0.002804  -0.004851   0.002875
              7          8          9         10         11         12
     1  C    0.441511  -0.043299   0.005126  -0.001193   0.005126  -0.043299
     2  C   -0.042922   0.438414  -0.041552   0.005126  -0.001101   0.005208
     3  C    0.005126  -0.041552   0.438414  -0.042922   0.005208  -0.001101
     4  C   -0.001193   0.005126  -0.043299   0.441511  -0.043299   0.005126
     5  C    0.005126  -0.001101   0.005208  -0.042922   0.438414  -0.041552
     6  C   -0.042922   0.005208  -0.001101   0.005126  -0.041552   0.438414
     7  H    0.478290  -0.004998  -0.000181   0.000049  -0.000181  -0.004998
     8  H   -0.004998   0.489916  -0.005048  -0.000181   0.000047  -0.000181
     9  H   -0.000181  -0.005048   0.489916  -0.004998  -0.000181   0.000047
    10  H    0.000049  -0.000181  -0.004998   0.478290  -0.004998  -0.000181
    11  H   -0.000181   0.000047  -0.000181  -0.004998   0.489916  -0.005048
    12  H   -0.004998  -0.000181   0.000047  -0.000181  -0.005048   0.489916
    13  S   -0.000090   0.000478   0.000478  -0.000090   0.000478   0.000478
    14  H    0.000056  -0.000030   0.000385  -0.000764   0.000385  -0.000030
    15  H   -0.000764   0.000385  -0.000030   0.000056  -0.000030   0.000385
             13         14         15
     1  C   -0.013539   0.002804  -0.007800
     2  C   -0.011573  -0.004851   0.002875
     3  C   -0.011573   0.002875  -0.004851
     4  C   -0.013539  -0.007800   0.002804
     5  C   -0.011573   0.002875  -0.004851
     6  C   -0.011573  -0.004851   0.002875
     7  H   -0.000090   0.000056  -0.000764
     8  H    0.000478  -0.000030   0.000385
     9  H    0.000478   0.000385  -0.000030
    10  H   -0.000090  -0.000764   0.000056
    11  H    0.000478   0.000385  -0.000030
    12  H    0.000478  -0.000030   0.000385
    13  S   15.580706   0.381694   0.381694
    14  H    0.381694   0.525581  -0.022542
    15  H    0.381694  -0.022542   0.525581
 Mulliken atomic charges:
              1
     1  C   -0.158145
     2  C   -0.155778
     3  C   -0.155778
     4  C   -0.158145
     5  C   -0.155778
     6  C   -0.155778
     7  H    0.168090
     8  H    0.156815
     9  H    0.156815
    10  H    0.168090
    11  H    0.156815
    12  H    0.156815
    13  S   -0.272457
    14  H    0.124210
    15  H    0.124210
 Sum of Mulliken atomic charges =   0.00000
 Mulliken charges with hydrogens summed into heavy atoms:
              1
     1  C    0.009944
     2  C    0.001037
     3  C    0.001037
     4  C    0.009944
     5  C    0.001037
     6  C    0.001037
    13  S   -0.024037
 Sum of Mulliken charges with hydrogens summed into heavy atoms =   0.00000
          Condensed to fragments (all electrons):
     1       0.024037
     2      -0.024037
 Electronic spatial extent (au):  <R**2>=            936.9075
 Charge=              0.0000 electrons
 Dipole moment (field-independent basis, Debye):
    X=              0.0000    Y=              0.0000    Z=              1.9512  Tot=              1.9512
 Quadrupole moment (field-independent basis, Debye-Ang):
   XX=            -47.6482   YY=            -43.6808   ZZ=            -61.1112
   XY=              0.0000   XZ=              0.0000   YZ=              0.0000
 Traceless Quadrupole moment (field-independent basis, Debye-Ang):
   XX=              3.1652   YY=              7.1326   ZZ=            -10.2978
   XY=              0.0000   XZ=              0.0000   YZ=              0.0000
 Octapole moment (field-independent basis, Debye-Ang**2):
  XXX=              0.0000  YYY=              0.0000  ZZZ=             -2.9094  XYY=              0.0000
  XXY=              0.0000  XXZ=              6.7887  XZZ=              0.0000  YZZ=              0.0000
  YYZ=             -1.9638  XYZ=              0.0000
 Hexadecapole moment (field-independent basis, Debye-Ang**3):
 XXXX=           -286.9533 YYYY=           -287.4928 ZZZZ=           -751.0930 XXXY=              0.0000
 XXXZ=              0.0000 YYYX=              0.0000 YYYZ=              0.0000 ZZZX=              0.0000
 ZZZY=              0.0000 XXYY=            -96.0819 XXZZ=           -179.7323 YYZZ=           -161.2545
 XXYZ=              0.0000 YYXZ=              0.0000 ZZXY=              0.0000
 N-N= 3.325086489944D+02 E-N=-2.151626989164D+03  KE= 6.293356183296D+02
 No NMR shielding tensors so no spin-rotation constants.
 Leave Link  601 at Mon Sep  9 10:45:03 2019, MaxMem= 4294967296 cpu:       3.8
 (Enter /opt/g09gh/gaussian/g09/l701.exe)
 Compute integral first derivatives.
 ... and contract with generalized density number  2.
 Leave Link  701 at Mon Sep  9 10:45:04 2019, MaxMem= 4294967296 cpu:       2.4
 (Enter /opt/g09gh/gaussian/g09/l702.exe)
 L702 exits ... SP integral derivatives will be done elsewhere.
 Leave Link  702 at Mon Sep  9 10:45:04 2019, MaxMem= 4294967296 cpu:       0.1
 (Enter /opt/g09gh/gaussian/g09/l703.exe)
 Compute integral first derivatives, UseDBF=F ICtDFT=           0.
 Integral derivatives from FoFDir, PRISM(SPDF).
 Calling FoFJK, ICntrl=      2127 FMM=F ISym2X=0 I1Cent= 0 IOpClX= 0 NMat=1 NMatS=1 NMatT=0.
 FoFCou: FMM=F IPFlag=           0 FMFlag=      100000 FMFlg1=         800
         NFxFlg=           0 DoJE=F BraDBF=F KetDBF=F FulRan=T
         Omega=  0.000000  0.000000  1.000000  0.000000  0.000000 ICntrl=    2127 IOpCl=  0
         NMat0=    1 NMatS0=    1 NMatT0=    0 NMatD0=    1 NMtDS0=    0 NMtDT0=    0
         I1Cent=           0 NGrid=           0.
 Symmetry not used in FoFCou.
 Leave Link  703 at Mon Sep  9 10:45:47 2019, MaxMem= 4294967296 cpu:     228.3
 (Enter /opt/g09gh/gaussian/g09/l716.exe)
 Dipole        =-7.63833441D-14 7.43405337D-13 7.45272712D-01
 Cartesian Forces:  Max     0.012545491 RMS     0.002339536
 Leave Link  716 at Mon Sep  9 10:45:47 2019, MaxMem= 4294967296 cpu:       0.9
 (Enter /opt/g09gh/gaussian/g09/l122.exe)
 Counterpoise: doing DCBS calculation for fragment   1 NewBq=T
 Leave Link  122 at Mon Sep  9 10:45:48 2019, MaxMem= 4294967296 cpu:       0.0
 (Enter /opt/g09gh/gaussian/g09/l301.exe)
 Basis read from rwf:  (5D, 7F)
 No pseudopotential information found on rwf file.
 Integral buffers will be    131072 words long.
 Raffenetti 1 integral format.
 Two-electron integral symmetry is turned off.
   326 basis functions,   542 primitive gaussians,   369 cartesian basis functions
    21 alpha electrons       21 beta electrons
       nuclear repulsion energy       204.0199598751 Hartrees.
 IExCor=    0 DFT=F Ex=HF Corr=None ExCW=0 ScaHFX=  1.000000
 ScaDFX=  1.000000  1.000000  1.000000  1.000000 ScalE2=  1.000000  1.000000
 IRadAn=      0 IRanWt=     -1 IRanGd=            0 ICorTp=0
 NAtoms=   15 NActive=   15 NUniq=   15 SFac= 7.50D-01 NAtFMM=   80 NAOKFM=F Big=F
 No density basis found on file   718.
 Leave Link  301 at Mon Sep  9 10:45:48 2019, MaxMem= 4294967296 cpu:       0.5
 (Enter /opt/g09gh/gaussian/g09/l302.exe)
 NPDir=0 NMtPBC=     1 NCelOv=     1 NCel=       1 NClECP=     1 NCelD=      1
         NCelK=      1 NCelE2=     1 NClLst=     1 CellRange=     0.0.
 One-electron integrals computed using PRISM.
 NBasis=   326 RedAO= T  NBF=   326
 NBsUse=   326 1.00D-06 NBFU=   326
 Leave Link  302 at Mon Sep  9 10:45:49 2019, MaxMem= 4294967296 cpu:       4.0
 (Enter /opt/g09gh/gaussian/g09/l303.exe)
 DipDrv:  MaxL=1.
 Leave Link  303 at Mon Sep  9 10:45:49 2019, MaxMem= 4294967296 cpu:       0.5
 (Enter /opt/g09gh/gaussian/g09/l401.exe)
 Harris functional with IExCor=  205 diagonalized for initial guess.
 ExpMin= 1.03D-01 ExpMax= 3.74D+05 ExpMxC= 1.18D+03 IAcc=2 IRadAn=         0 AccDes= 0.00D+00
 HarFok:  IExCor=  205 AccDes= 0.00D+00 IRadAn=         0 IDoV= 1
 ScaDFX=  1.000000  1.000000  1.000000  1.000000
 FoFCou: FMM=F IPFlag=           0 FMFlag=      100000 FMFlg1=           0
         NFxFlg=           0 DoJE=T BraDBF=F KetDBF=T FulRan=T
         Omega=  0.000000  0.000000  1.000000  0.000000  0.000000 ICntrl=     500 IOpCl=  0
         NMat0=    1 NMatS0=    1 NMatT0=    0 NMatD0=    1 NMtDS0=    0 NMtDT0=    0
         I1Cent=           4 NGrid=           0.
 Symmetry not used in FoFCou.
 Harris En= -231.192170945982    
 Leave Link  401 at Mon Sep  9 10:45:50 2019, MaxMem= 4294967296 cpu:       7.6
 (Enter /opt/g09gh/gaussian/g09/l502.exe)
 Closed shell SCF:
 Requested convergence on RMS density matrix=1.00D-08 within  64 cycles.
 Requested convergence on MAX density matrix=1.00D-06.
 Requested convergence on             energy=1.00D-06.
 No special actions if energy rises.
 Using DIIS extrapolation, IDIIS=  1040.
 Two-electron integral symmetry not used.
 Keep R1 ints in memory in canonical form, NReq=2355834791.
 IEnd=      419217 IEndB=      419217 NGot=  4294967296 MDV=  1964599561
 LenX=  1964599561 LenY=  1964462959
 Symmetry not used in FoFDir.
 MinBra= 0 MaxBra= 3 Meth= 1.
 IRaf=       0 NMat=   1 IRICut=       1 DoRegI=T DoRafI=F ISym2E= 0 JSym2E=0.

 Cycle   1  Pass 1  IDiag  1:
 E= -230.460870373978    
 DIIS: error= 5.73D-02 at cycle   1 NSaved=   1.
 NSaved= 1 IEnMin= 1 EnMin= -230.460870373978     IErMin= 1 ErrMin= 5.73D-02
 ErrMax= 5.73D-02 EMaxC= 1.00D-01 BMatC= 5.25D-01 BMatP= 5.25D-01
 IDIUse=3 WtCom= 4.27D-01 WtEn= 5.73D-01
 Coeff-Com:  0.100D+01
 Coeff-En:   0.100D+01
 Coeff:      0.100D+01
 Gap=     0.481 Goal=   None    Shift=    0.000
 GapD=    0.481 DampG=2.000 DampE=0.500 DampFc=1.0000 IDamp=-1.
 RMSDP=1.54D-03 MaxDP=4.56D-02              OVMax= 1.54D-01

 Cycle   2  Pass 1  IDiag  1:
 E= -230.728554390947     Delta-E=       -0.267684016969 Rises=F Damp=F
 DIIS: error= 3.20D-02 at cycle   2 NSaved=   2.
 NSaved= 2 IEnMin= 2 EnMin= -230.728554390947     IErMin= 2 ErrMin= 3.20D-02
 ErrMax= 3.20D-02 EMaxC= 1.00D-01 BMatC= 5.44D-02 BMatP= 5.25D-01
 IDIUse=3 WtCom= 6.80D-01 WtEn= 3.20D-01
 Coeff-Com:  0.163D+00 0.837D+00
 Coeff-En:   0.000D+00 0.100D+01
 Coeff:      0.111D+00 0.889D+00
 Gap=     0.490 Goal=   None    Shift=    0.000
 RMSDP=6.93D-04 MaxDP=1.34D-02 DE=-2.68D-01 OVMax= 5.78D-02

 Cycle   3  Pass 1  IDiag  1:
 E= -230.773559108247     Delta-E=       -0.045004717299 Rises=F Damp=F
 DIIS: error= 1.05D-02 at cycle   3 NSaved=   3.
 NSaved= 3 IEnMin= 3 EnMin= -230.773559108247     IErMin= 3 ErrMin= 1.05D-02
 ErrMax= 1.05D-02 EMaxC= 1.00D-01 BMatC= 6.87D-03 BMatP= 5.44D-02
 IDIUse=3 WtCom= 8.95D-01 WtEn= 1.05D-01
 Coeff-Com: -0.230D-01 0.232D+00 0.791D+00
 Coeff-En:   0.000D+00 0.000D+00 0.100D+01
 Coeff:     -0.206D-01 0.208D+00 0.813D+00
 Gap=     0.463 Goal=   None    Shift=    0.000
 RMSDP=1.43D-04 MaxDP=3.38D-03 DE=-4.50D-02 OVMax= 1.77D-02

 Cycle   4  Pass 1  IDiag  1:
 E= -230.780051440537     Delta-E=       -0.006492332291 Rises=F Damp=F
 DIIS: error= 1.60D-03 at cycle   4 NSaved=   4.
 NSaved= 4 IEnMin= 4 EnMin= -230.780051440537     IErMin= 4 ErrMin= 1.60D-03
 ErrMax= 1.60D-03 EMaxC= 1.00D-01 BMatC= 6.01D-05 BMatP= 6.87D-03
 IDIUse=3 WtCom= 9.84D-01 WtEn= 1.60D-02
 Coeff-Com: -0.279D-02-0.105D-01 0.471D-01 0.966D+00
 Coeff-En:   0.000D+00 0.000D+00 0.000D+00 0.100D+01
 Coeff:     -0.275D-02-0.103D-01 0.463D-01 0.967D+00
 Gap=     0.454 Goal=   None    Shift=    0.000
 RMSDP=3.04D-05 MaxDP=6.15D-04 DE=-6.49D-03 OVMax= 2.41D-03

 Cycle   5  Pass 1  IDiag  1:
 E= -230.780129083232     Delta-E=       -0.000077642695 Rises=F Damp=F
 DIIS: error= 2.72D-04 at cycle   5 NSaved=   5.
 NSaved= 5 IEnMin= 5 EnMin= -230.780129083232     IErMin= 5 ErrMin= 2.72D-04
 ErrMax= 2.72D-04 EMaxC= 1.00D-01 BMatC= 2.52D-06 BMatP= 6.01D-05
 IDIUse=3 WtCom= 9.97D-01 WtEn= 2.72D-03
 Coeff-Com:  0.146D-02-0.937D-02-0.472D-01-0.188D+00 0.124D+01
 Coeff-En:   0.000D+00 0.000D+00 0.000D+00 0.000D+00 0.100D+01
 Coeff:      0.145D-02-0.935D-02-0.471D-01-0.187D+00 0.124D+01
 Gap=     0.454 Goal=   None    Shift=    0.000
 RMSDP=1.12D-05 MaxDP=2.24D-04 DE=-7.76D-05 OVMax= 7.63D-04

 Cycle   6  Pass 1  IDiag  1:
 E= -230.780134205392     Delta-E=       -0.000005122160 Rises=F Damp=F
 DIIS: error= 2.44D-05 at cycle   6 NSaved=   6.
 NSaved= 6 IEnMin= 6 EnMin= -230.780134205392     IErMin= 6 ErrMin= 2.44D-05
 ErrMax= 2.44D-05 EMaxC= 1.00D-01 BMatC= 1.50D-08 BMatP= 2.52D-06
 IDIUse=1 WtCom= 1.00D+00 WtEn= 0.00D+00
 Coeff-Com: -0.143D-03 0.121D-02 0.609D-02 0.181D-01-0.188D+00 0.116D+01
 Coeff:     -0.143D-03 0.121D-02 0.609D-02 0.181D-01-0.188D+00 0.116D+01
 Gap=     0.454 Goal=   None    Shift=    0.000
 RMSDP=1.26D-06 MaxDP=3.63D-05 DE=-5.12D-06 OVMax= 6.41D-05

 Cycle   7  Pass 1  IDiag  1:
 E= -230.780134239177     Delta-E=       -0.000000033785 Rises=F Damp=F
 DIIS: error= 2.22D-06 at cycle   7 NSaved=   7.
 NSaved= 7 IEnMin= 7 EnMin= -230.780134239177     IErMin= 7 ErrMin= 2.22D-06
 ErrMax= 2.22D-06 EMaxC= 1.00D-01 BMatC= 4.24D-10 BMatP= 1.50D-08
 IDIUse=1 WtCom= 1.00D+00 WtEn= 0.00D+00
 Coeff-Com: -0.192D-05-0.292D-04-0.235D-03-0.483D-04 0.105D-01-0.171D+00
 Coeff-Com:  0.116D+01
 Coeff:     -0.192D-05-0.292D-04-0.235D-03-0.483D-04 0.105D-01-0.171D+00
 Coeff:      0.116D+01
 Gap=     0.454 Goal=   None    Shift=    0.000
 RMSDP=1.80D-07 MaxDP=5.36D-06 DE=-3.38D-08 OVMax= 1.01D-05

 Cycle   8  Pass 1  IDiag  1:
 E= -230.780134240058     Delta-E=       -0.000000000881 Rises=F Damp=F
 DIIS: error= 5.48D-07 at cycle   8 NSaved=   8.
 NSaved= 8 IEnMin= 8 EnMin= -230.780134240058     IErMin= 8 ErrMin= 5.48D-07
 ErrMax= 5.48D-07 EMaxC= 1.00D-01 BMatC= 5.86D-11 BMatP= 4.24D-10
 IDIUse=1 WtCom= 1.00D+00 WtEn= 0.00D+00
 Coeff-Com:  0.832D-05-0.833D-04-0.445D-03-0.119D-02 0.147D-01-0.118D+00
 Coeff-Com:  0.300D+00 0.806D+00
 Coeff:      0.832D-05-0.833D-04-0.445D-03-0.119D-02 0.147D-01-0.118D+00
 Coeff:      0.300D+00 0.806D+00
 Gap=     0.454 Goal=   None    Shift=    0.000
 RMSDP=2.84D-08 MaxDP=8.22D-07 DE=-8.81D-10 OVMax= 2.56D-06

 Cycle   9  Pass 1  IDiag  1:
 E= -230.780134240132     Delta-E=       -0.000000000074 Rises=F Damp=F
 DIIS: error= 1.49D-07 at cycle   9 NSaved=   9.
 NSaved= 9 IEnMin= 9 EnMin= -230.780134240132     IErMin= 9 ErrMin= 1.49D-07
 ErrMax= 1.49D-07 EMaxC= 1.00D-01 BMatC= 1.75D-12 BMatP= 5.86D-11
 IDIUse=1 WtCom= 1.00D+00 WtEn= 0.00D+00
 Coeff-Com: -0.445D-06 0.674D-05 0.444D-04 0.766D-04-0.161D-02 0.177D-01
 Coeff-Com: -0.887D-01-0.516D-01 0.112D+01
 Coeff:     -0.445D-06 0.674D-05 0.444D-04 0.766D-04-0.161D-02 0.177D-01
 Coeff:     -0.887D-01-0.516D-01 0.112D+01
 Gap=     0.454 Goal=   None    Shift=    0.000
 RMSDP=9.67D-09 MaxDP=2.12D-07 DE=-7.36D-11 OVMax= 7.52D-07

 SCF Done:  E(RHF) =  -230.780134240     A.U. after    9 cycles
             Convg  =    0.9674D-08             -V/T =  2.0012
 KE= 2.305020530999D+02 PE=-9.450573581069D+02 EE= 2.797552108918D+02
 Leave Link  502 at Mon Sep  9 10:47:38 2019, MaxMem= 4294967296 cpu:     561.1
 (Enter /opt/g09gh/gaussian/g09/l801.exe)
 ExpMin= 1.03D-01 ExpMax= 3.74D+05 ExpMxC= 1.18D+03 IAcc=3 IRadAn=         5 AccDes= 0.00D+00
 HarFok:  IExCor=  205 AccDes= 0.00D+00 IRadAn=         5 IDoV=-2
 ScaDFX=  1.000000  1.000000  1.000000  1.000000
 Largest valence mixing into a core orbital is  2.40D-04
 Largest core mixing into a valence orbital is  5.19D-05
 Range of M.O.s used for correlation:     7   326
 NBasis=   326 NAE=    21 NBE=    21 NFC=     6 NFV=     0
 NROrb=    320 NOA=    15 NOB=    15 NVA=   305 NVB=   305

 **** Warning!!: The largest alpha MO coefficient is  0.33578754D+02

 Leave Link  801 at Mon Sep  9 10:47:39 2019, MaxMem= 4294967296 cpu:       1.4
 (Enter /opt/g09gh/gaussian/g09/l906.exe)
 Frozen-core derivative calculation, NFC=   6 NFV=   0.
 FulOut=F Deriv=T AODrv=T NAtomX=    15
   MMem=         170  MDisk=          15 MDiskD=          15
  W3Min=     2526174 MinDsk=     4074683 NBas6D=         369
 NBas2D=       69024    NTT=       68265    LW2=     3500000
    MDV=  4293663289 MDiskM=       58152 NBas2p=       67899
 Fully direct method using O(ONN) memory.
 IMap=   1   2   3   4   5   6   7   8   9  10  11  12  13  14  15  16  17  18  19  20
 IMap=  21
 JobTyp=1 Pass  1:  I=   7 to  21 NPSUse=  8 ParTrn=T ParDer=T DoDerP=T.
 Spin components of T(2) and E(2):
     alpha-alpha T2 =       0.4502821779D-01 E2=     -0.1188323515D+00
     alpha-beta  T2 =       0.2392547352D+00 E2=     -0.7127439626D+00
     beta-beta   T2 =       0.4502821779D-01 E2=     -0.1188323515D+00
 The integrals were generated   1 times.
 ANorm=    0.1152957575D+01
 E2 =    -0.9504086656D+00 EUMP2 =    -0.23173054290577D+03
 Leave Link  906 at Mon Sep  9 10:51:26 2019, MaxMem= 4294967296 cpu:    1198.5
 (Enter /opt/g09gh/gaussian/g09/l1002.exe)
 Minotr:  Closed shell wavefunction.
          Computing MP2/KS-MP2 derivatives.
          Using Z-Vector for PSCF gradient.
          Skipping F1 and S1 gradient terms here.
          IDoAtm=111111111111111
          Frozen-core window.
          Direct CPHF calculation.
          Differentiating once with respect to electric field.
                with respect to dipole field.
          Differentiating once with respect to nuclear coordinates.
          Requested convergence is 1.0D-10 RMS, and 1.0D-09 maximum.
          NewPWx=F KeepS1=T KeepF1=T KeepIn=T MapXYZ=F SortEE=F KeepMc=T.
          MDV=    4294967142 using IRadAn=       0.
          Keep R1 ints in memory in canonical form, NReq=2332031403.
 Symmetry not used in FoFDir.
 MinBra= 0 MaxBra= 3 Meth= 1.
 IRaf=       0 NMat=   1 IRICut=       1 DoRegI=T DoRafI=F ISym2E= 0 JSym2E=0.
          Solving linear equations separately, MaxMat=       0.
          There are     1 degrees of freedom in the 1st order CPHF.  IDoFFX=0.
 LinEq1:  Iter=  0 NonCon=     1 RMS=2.44D-03 Max=5.67D-02
 AX will form     1 AO Fock derivatives at one time.
 LinEq1:  Iter=  1 NonCon=     1 RMS=6.85D-04 Max=1.98D-02
 LinEq1:  Iter=  2 NonCon=     1 RMS=1.59D-04 Max=3.41D-03
 LinEq1:  Iter=  3 NonCon=     1 RMS=3.38D-05 Max=7.28D-04
 LinEq1:  Iter=  4 NonCon=     1 RMS=4.19D-06 Max=7.14D-05
 LinEq1:  Iter=  5 NonCon=     1 RMS=4.31D-07 Max=8.59D-06
 LinEq1:  Iter=  6 NonCon=     1 RMS=5.92D-08 Max=1.08D-06
 LinEq1:  Iter=  7 NonCon=     1 RMS=1.96D-08 Max=3.33D-07
 LinEq1:  Iter=  8 NonCon=     1 RMS=3.68D-09 Max=9.60D-08
 LinEq1:  Iter=  9 NonCon=     1 RMS=1.12D-09 Max=2.10D-08
 LinEq1:  Iter= 10 NonCon=     1 RMS=1.90D-10 Max=6.25D-09
 LinEq1:  Iter= 11 NonCon=     0 RMS=2.62D-11 Max=6.71D-10
 Linear equations converged to 1.000D-10 1.000D-09 after    11 iterations.
 End of Minotr Frequency-dependent properties file   721 does not exist.
 End of Minotr Frequency-dependent properties file   722 does not exist.
 Leave Link 1002 at Mon Sep  9 10:52:59 2019, MaxMem= 4294967296 cpu:     498.3
 (Enter /opt/g09gh/gaussian/g09/l601.exe)
 Copying SCF densities to generalized density rwf, IOpCl= 0 IROHF=0.

 **********************************************************************

            Population analysis using the SCF density.

 **********************************************************************

 Alpha  occ. eigenvalues --  -11.23341 -11.23284 -11.23281 -11.23158 -11.23155
 Alpha  occ. eigenvalues --  -11.23095  -1.14993  -1.01393  -1.01392  -0.82317
 Alpha  occ. eigenvalues --   -0.82317  -0.70921  -0.64283  -0.61828  -0.58706
 Alpha  occ. eigenvalues --   -0.58706  -0.50195  -0.49355  -0.49354  -0.33587
 Alpha  occ. eigenvalues --   -0.33584
 Alpha virt. eigenvalues --    0.11841   0.12886   0.12926   0.15374   0.16459
 Alpha virt. eigenvalues --    0.16852   0.20145   0.20156   0.22109   0.24254
 Alpha virt. eigenvalues --    0.26188   0.26932   0.33048   0.35761   0.35915
 Alpha virt. eigenvalues --    0.37895   0.37914   0.39372   0.41828   0.42299
 Alpha virt. eigenvalues --    0.42953   0.47052   0.48758   0.49400   0.53936
 Alpha virt. eigenvalues --    0.55204   0.55690   0.56903   0.58110   0.58458
 Alpha virt. eigenvalues --    0.59174   0.59608   0.61172   0.62496   0.63930
 Alpha virt. eigenvalues --    0.63938   0.64382   0.65363   0.67184   0.69605
 Alpha virt. eigenvalues --    0.70430   0.72449   0.72814   0.74994   0.75831
 Alpha virt. eigenvalues --    0.76065   0.80960   0.83986   0.87130   0.88494
 Alpha virt. eigenvalues --    0.88653   0.88702   0.94649   0.95482   0.96364
 Alpha virt. eigenvalues --    0.97007   0.97695   0.99594   1.00549   1.03420
 Alpha virt. eigenvalues --    1.04412   1.04595   1.06387   1.07476   1.09363
 Alpha virt. eigenvalues --    1.11126   1.11662   1.13414   1.18272   1.19846
 Alpha virt. eigenvalues --    1.20738   1.21405   1.22800   1.23082   1.28548
 Alpha virt. eigenvalues --    1.29657   1.32187   1.32492   1.32661   1.39267
 Alpha virt. eigenvalues --    1.39688   1.40159   1.40573   1.44760   1.46503
 Alpha virt. eigenvalues --    1.48052   1.49511   1.51203   1.51442   1.51538
 Alpha virt. eigenvalues --    1.51785   1.52465   1.53257   1.58416   1.58737
 Alpha virt. eigenvalues --    1.59455   1.59762   1.63241   1.66068   1.69952
 Alpha virt. eigenvalues --    1.71624   1.73341   1.74799   1.75078   1.78333
 Alpha virt. eigenvalues --    1.81258   1.85390   1.90830   1.93063   1.96156
 Alpha virt. eigenvalues --    2.09132   2.19256   2.19358   2.23385   2.31271
 Alpha virt. eigenvalues --    2.36382   2.41174   2.44338   2.46378   2.46945
 Alpha virt. eigenvalues --    2.47843   2.53733   2.54101   2.56906   2.60491
 Alpha virt. eigenvalues --    2.61201   2.61357   2.66893   2.68478   2.72387
 Alpha virt. eigenvalues --    2.74408   2.75545   2.76625   2.80170   2.80381
 Alpha virt. eigenvalues --    2.82449   2.83735   2.86148   2.89299   2.91135
 Alpha virt. eigenvalues --    2.93876   2.93885   2.94149   2.96218   2.97149
 Alpha virt. eigenvalues --    3.00947   3.02292   3.03979   3.04662   3.06350
 Alpha virt. eigenvalues --    3.06545   3.10957   3.12110   3.13053   3.16753
 Alpha virt. eigenvalues --    3.17411   3.22585   3.24055   3.28818   3.30203
 Alpha virt. eigenvalues --    3.31061   3.31343   3.32607   3.34142   3.35525
 Alpha virt. eigenvalues --    3.39015   3.39119   3.39195   3.39484   3.39823
 Alpha virt. eigenvalues --    3.40754   3.41249   3.41811   3.42025   3.44100
 Alpha virt. eigenvalues --    3.44698   3.45354   3.47781   3.48059   3.50589
 Alpha virt. eigenvalues --    3.50722   3.50766   3.53611   3.60721   3.61805
 Alpha virt. eigenvalues --    3.62008   3.63265   3.66345   3.68193   3.68994
 Alpha virt. eigenvalues --    3.71181   3.71338   3.71376   3.71424   3.75861
 Alpha virt. eigenvalues --    3.77834   3.77962   3.87536   3.90095   3.91821
 Alpha virt. eigenvalues --    3.92487   3.93003   3.96122   3.96779   4.03196
 Alpha virt. eigenvalues --    4.06292   4.06644   4.07459   4.11176   4.12086
 Alpha virt. eigenvalues --    4.12173   4.13697   4.14183   4.14459   4.14975
 Alpha virt. eigenvalues --    4.16770   4.17613   4.17733   4.18409   4.18777
 Alpha virt. eigenvalues --    4.21419   4.22832   4.24104   4.33831   4.34136
 Alpha virt. eigenvalues --    4.35550   4.40846   4.40846   4.42147   4.43197
 Alpha virt. eigenvalues --    4.46845   4.47494   4.49827   4.52385   4.53531
 Alpha virt. eigenvalues --    4.54282   4.55671   4.56871   4.59766   4.66292
 Alpha virt. eigenvalues --    4.66689   4.67619   4.67685   4.69080   4.69093
 Alpha virt. eigenvalues --    4.69152   4.73595   4.73608   4.73760   4.76738
 Alpha virt. eigenvalues --    4.83340   4.84783   4.87653   4.91636   4.93565
 Alpha virt. eigenvalues --    4.96346   5.00886   5.08252   5.09288   5.11480
 Alpha virt. eigenvalues --    5.11875   5.12001   5.13155   5.13323   5.18397
 Alpha virt. eigenvalues --    5.20547   5.22893   5.27896   5.37125   5.38263
 Alpha virt. eigenvalues --    5.38628   5.38894   5.39525   5.43385   5.43539
 Alpha virt. eigenvalues --    5.54124   5.54800   5.55361   5.66353   5.75366
 Alpha virt. eigenvalues --    5.81545   5.83459   6.08680   6.08792   6.12669
 Alpha virt. eigenvalues --    6.28438   6.29375   6.35418   6.37747   6.38240
 Alpha virt. eigenvalues --    6.53806   6.55792   6.88039   7.35581   9.75832
 Alpha virt. eigenvalues --   12.96983  13.15106  13.34499  13.69775  13.74358
 Alpha virt. eigenvalues --   16.36724  23.75855  24.31158  24.38881 141.48100
          Condensed to atoms (all electrons):
              1          2          3          4          5          6
     1  C    4.894056   0.503471  -0.063710  -0.014191  -0.063710   0.503471
     2  C    0.503471   4.933417   0.509864  -0.063710  -0.018144  -0.062592
     3  C   -0.063710   0.509864   4.933417   0.503471  -0.062592  -0.018144
     4  C   -0.014191  -0.063710   0.503471   4.894056   0.503471  -0.063710
     5  C   -0.063710  -0.018144  -0.062592   0.503471   4.933417   0.509864
     6  C    0.503471  -0.062592  -0.018144  -0.063710   0.509864   4.933417
     7  H    0.439067  -0.043102   0.005151  -0.001084   0.005151  -0.043102
     8  H   -0.042912   0.438028  -0.044071   0.004991  -0.000951   0.005176
     9  H    0.004991  -0.044071   0.438028  -0.042912   0.005176  -0.000951
    10  H   -0.001084   0.005151  -0.043102   0.439067  -0.043102   0.005151
    11  H    0.004991  -0.000951   0.005176  -0.042912   0.438028  -0.044071
    12  H   -0.042912   0.005176  -0.000951   0.004991  -0.044071   0.438028
    13  S   -0.001248  -0.001034  -0.001034  -0.001248  -0.001034  -0.001034
    14  H   -0.002244  -0.000242   0.003231   0.006909   0.003231  -0.000242
    15  H    0.006909   0.003231  -0.000242  -0.002244  -0.000242   0.003231
              7          8          9         10         11         12
     1  C    0.439067  -0.042912   0.004991  -0.001084   0.004991  -0.042912
     2  C   -0.043102   0.438028  -0.044071   0.005151  -0.000951   0.005176
     3  C    0.005151  -0.044071   0.438028  -0.043102   0.005176  -0.000951
     4  C   -0.001084   0.004991  -0.042912   0.439067  -0.042912   0.004991
     5  C    0.005151  -0.000951   0.005176  -0.043102   0.438028  -0.044071
     6  C   -0.043102   0.005176  -0.000951   0.005151  -0.044071   0.438028
     7  H    0.493426  -0.005154  -0.000208   0.000054  -0.000208  -0.005154
     8  H   -0.005154   0.497636  -0.005084  -0.000208   0.000056  -0.000209
     9  H   -0.000208  -0.005084   0.497636  -0.005154  -0.000209   0.000056
    10  H    0.000054  -0.000208  -0.005154   0.493426  -0.005154  -0.000208
    11  H   -0.000208   0.000056  -0.000209  -0.005154   0.497636  -0.005084
    12  H   -0.005154  -0.000209   0.000056  -0.000208  -0.005084   0.497636
    13  S    0.000137  -0.000007  -0.000007   0.000137  -0.000007  -0.000007
    14  H    0.000036   0.000040  -0.000096  -0.000560  -0.000096   0.000040
    15  H   -0.000560  -0.000096   0.000040   0.000036   0.000040  -0.000096
             13         14         15
     1  C   -0.001248  -0.002244   0.006909
     2  C   -0.001034  -0.000242   0.003231
     3  C   -0.001034   0.003231  -0.000242
     4  C   -0.001248   0.006909  -0.002244
     5  C   -0.001034   0.003231  -0.000242
     6  C   -0.001034  -0.000242   0.003231
     7  H    0.000137   0.000036  -0.000560
     8  H   -0.000007   0.000040  -0.000096
     9  H   -0.000007  -0.000096   0.000040
    10  H    0.000137  -0.000560   0.000036
    11  H   -0.000007  -0.000096   0.000040
    12  H   -0.000007   0.000040  -0.000096
    13  S    0.000963  -0.000445  -0.000445
    14  H   -0.000445   0.001125  -0.000394
    15  H   -0.000445  -0.000394   0.001125
 Mulliken atomic charges:
              1
     1  C   -0.124949
     2  C   -0.164493
     3  C   -0.164493
     4  C   -0.124949
     5  C   -0.164493
     6  C   -0.164493
     7  H    0.155548
     8  H    0.152762
     9  H    0.152762
    10  H    0.155548
    11  H    0.152762
    12  H    0.152762
    13  S    0.006313
    14  H   -0.010293
    15  H   -0.010293
 Sum of Mulliken atomic charges =   0.00000
 Mulliken charges with hydrogens summed into heavy atoms:
              1
     1  C    0.030599
     2  C   -0.011731
     3  C   -0.011731
     4  C    0.030599
     5  C   -0.011731
     6  C   -0.011731
    13  S   -0.014273
 Sum of Mulliken charges with hydrogens summed into heavy atoms =   0.00000
          Condensed to fragments (all electrons):
     1       0.014273
     2      -0.014273
 Electronic spatial extent (au):  <R**2>=            593.7895
 Charge=              0.0000 electrons
 Dipole moment (field-independent basis, Debye):
    X=              0.0000    Y=              0.0000    Z=              0.0324  Tot=              0.0324
 Quadrupole moment (field-independent basis, Debye-Ang):
   XX=            -31.7856   YY=            -31.8154   ZZ=            -40.5764
   XY=              0.0000   XZ=              0.0000   YZ=              0.0000
 Traceless Quadrupole moment (field-independent basis, Debye-Ang):
   XX=              2.9402   YY=              2.9104   ZZ=             -5.8506
   XY=              0.0000   XZ=              0.0000   YZ=              0.0000
 Octapole moment (field-independent basis, Debye-Ang**2):
  XXX=              0.0000  YYY=              0.0000  ZZZ=           -115.9734  XYY=              0.0000
  XXY=              0.0000  XXZ=            -30.2586  XZZ=              0.0000  YZZ=              0.0000
  YYZ=            -30.2485  XYZ=              0.0000
 Hexadecapole moment (field-independent basis, Debye-Ang**3):
 XXXX=           -268.6583 YYYY=           -268.9933 ZZZZ=           -270.0747 XXXY=              0.0000
 XXXZ=              0.0000 YYYX=              0.0000 YYYZ=              0.0000 ZZZX=              0.0000
 ZZZY=              0.0000 XXYY=            -89.5962 XXZZ=            -92.9233 YYZZ=            -92.9684
 XXYZ=              0.0000 YYXZ=              0.0000 ZZXY=              0.0000
 N-N= 2.040199598751D+02 E-N=-9.450573612623D+02  KE= 2.305020530999D+02
 No NMR shielding tensors so no spin-rotation constants.
 Leave Link  601 at Mon Sep  9 10:53:00 2019, MaxMem= 4294967296 cpu:       2.0
 (Enter /opt/g09gh/gaussian/g09/l701.exe)
 Compute integral first derivatives.
 ... and contract with generalized density number  2.
 Leave Link  701 at Mon Sep  9 10:53:00 2019, MaxMem= 4294967296 cpu:       2.7
 (Enter /opt/g09gh/gaussian/g09/l702.exe)
 L702 exits ... SP integral derivatives will be done elsewhere.
 Leave Link  702 at Mon Sep  9 10:53:01 2019, MaxMem= 4294967296 cpu:       0.1
 (Enter /opt/g09gh/gaussian/g09/l703.exe)
 Compute integral first derivatives, UseDBF=F ICtDFT=           0.
 Integral derivatives from FoFDir, PRISM(SPDF).
 Calling FoFJK, ICntrl=      2127 FMM=F ISym2X=0 I1Cent= 0 IOpClX= 0 NMat=1 NMatS=1 NMatT=0.
 FoFCou: FMM=F IPFlag=           0 FMFlag=      100000 FMFlg1=         800
         NFxFlg=           0 DoJE=F BraDBF=F KetDBF=F FulRan=T
         Omega=  0.000000  0.000000  1.000000  0.000000  0.000000 ICntrl=    2127 IOpCl=  0
         NMat0=    1 NMatS0=    1 NMatT0=    0 NMatD0=    1 NMtDS0=    0 NMtDT0=    0
         I1Cent=           0 NGrid=           0.
 Symmetry not used in FoFCou.
 Leave Link  703 at Mon Sep  9 10:53:41 2019, MaxMem= 4294967296 cpu:     213.0
 (Enter /opt/g09gh/gaussian/g09/l716.exe)
 Dipole        =-1.65201186D-13-3.41948692D-13 1.49516608D-02
 Cartesian Forces:  Max     0.001175013 RMS     0.000575341
 Leave Link  716 at Mon Sep  9 10:53:41 2019, MaxMem= 4294967296 cpu:       0.3
 (Enter /opt/g09gh/gaussian/g09/l122.exe)
 Counterpoise: doing DCBS calculation for fragment   2 NewBq=T
 Leave Link  122 at Mon Sep  9 10:53:41 2019, MaxMem= 4294967296 cpu:       0.0
 (Enter /opt/g09gh/gaussian/g09/l301.exe)
 Basis read from rwf:  (5D, 7F)
 No pseudopotential information found on rwf file.
 Integral buffers will be    131072 words long.
 Raffenetti 1 integral format.
 Two-electron integral symmetry is turned off.
   326 basis functions,   542 primitive gaussians,   369 cartesian basis functions
     9 alpha electrons        9 beta electrons
       nuclear repulsion energy        12.9538190547 Hartrees.
 IExCor=    0 DFT=F Ex=HF Corr=None ExCW=0 ScaHFX=  1.000000
 ScaDFX=  1.000000  1.000000  1.000000  1.000000 ScalE2=  1.000000  1.000000
 IRadAn=      0 IRanWt=     -1 IRanGd=            0 ICorTp=0
 NAtoms=   15 NActive=   15 NUniq=   15 SFac= 7.50D-01 NAtFMM=   80 NAOKFM=F Big=F
 No density basis found on file   718.
 Leave Link  301 at Mon Sep  9 10:53:41 2019, MaxMem= 4294967296 cpu:       0.3
 (Enter /opt/g09gh/gaussian/g09/l302.exe)
 NPDir=0 NMtPBC=     1 NCelOv=     1 NCel=       1 NClECP=     1 NCelD=      1
         NCelK=      1 NCelE2=     1 NClLst=     1 CellRange=     0.0.
 One-electron integrals computed using PRISM.
 NBasis=   326 RedAO= T  NBF=   326
 NBsUse=   326 1.00D-06 NBFU=   326
 Leave Link  302 at Mon Sep  9 10:53:42 2019, MaxMem= 4294967296 cpu:       2.5
 (Enter /opt/g09gh/gaussian/g09/l303.exe)
 DipDrv:  MaxL=1.
 Leave Link  303 at Mon Sep  9 10:53:42 2019, MaxMem= 4294967296 cpu:       0.4
 (Enter /opt/g09gh/gaussian/g09/l401.exe)
 Harris functional with IExCor=  205 diagonalized for initial guess.
 ExpMin= 1.03D-01 ExpMax= 3.74D+05 ExpMxC= 1.18D+03 IAcc=2 IRadAn=         0 AccDes= 0.00D+00
 HarFok:  IExCor=  205 AccDes= 0.00D+00 IRadAn=         0 IDoV= 1
 ScaDFX=  1.000000  1.000000  1.000000  1.000000
 FoFCou: FMM=F IPFlag=           0 FMFlag=      100000 FMFlg1=           0
         NFxFlg=           0 DoJE=T BraDBF=F KetDBF=T FulRan=T
         Omega=  0.000000  0.000000  1.000000  0.000000  0.000000 ICntrl=     500 IOpCl=  0
         NMat0=    1 NMatS0=    1 NMatT0=    0 NMatD0=    1 NMtDS0=    0 NMtDT0=    0
         I1Cent=           4 NGrid=           0.
 Symmetry not used in FoFCou.
 Harris En= -398.407932126970    
 Leave Link  401 at Mon Sep  9 10:53:43 2019, MaxMem= 4294967296 cpu:       6.9
 (Enter /opt/g09gh/gaussian/g09/l502.exe)
 Closed shell SCF:
 Requested convergence on RMS density matrix=1.00D-08 within  64 cycles.
 Requested convergence on MAX density matrix=1.00D-06.
 Requested convergence on             energy=1.00D-06.
 No special actions if energy rises.
 Using DIIS extrapolation, IDIIS=  1040.
 Two-electron integral symmetry not used.
 Keep R1 ints in memory in canonical form, NReq=2355834791.
 IEnd=      419217 IEndB=      419217 NGot=  4294967296 MDV=  1964599561
 LenX=  1964599561 LenY=  1964462959
 Symmetry not used in FoFDir.
 MinBra= 0 MaxBra= 3 Meth= 1.
 IRaf=       0 NMat=   1 IRICut=       1 DoRegI=T DoRafI=F ISym2E= 0 JSym2E=0.

 Cycle   1  Pass 1  IDiag  1:
 E= -398.687894854645    
 DIIS: error= 4.15D-02 at cycle   1 NSaved=   1.
 NSaved= 1 IEnMin= 1 EnMin= -398.687894854645     IErMin= 1 ErrMin= 4.15D-02
 ErrMax= 4.15D-02 EMaxC= 1.00D-01 BMatC= 1.03D-01 BMatP= 1.03D-01
 IDIUse=3 WtCom= 5.85D-01 WtEn= 4.15D-01
 Coeff-Com:  0.100D+01
 Coeff-En:   0.100D+01
 Coeff:      0.100D+01
 Gap=     0.533 Goal=   None    Shift=    0.000
 GapD=    0.533 DampG=2.000 DampE=0.500 DampFc=1.0000 IDamp=-1.
 RMSDP=5.70D-04 MaxDP=7.14D-02              OVMax= 3.79D-02

 Cycle   2  Pass 1  IDiag  1:
 E= -398.712496141919     Delta-E=       -0.024601287275 Rises=F Damp=F
 DIIS: error= 2.71D-03 at cycle   2 NSaved=   2.
 NSaved= 2 IEnMin= 2 EnMin= -398.712496141919     IErMin= 2 ErrMin= 2.71D-03
 ErrMax= 2.71D-03 EMaxC= 1.00D-01 BMatC= 5.06D-04 BMatP= 1.03D-01
 IDIUse=3 WtCom= 9.73D-01 WtEn= 2.71D-02
 Coeff-Com: -0.373D-02 0.100D+01
 Coeff-En:   0.000D+00 0.100D+01
 Coeff:     -0.363D-02 0.100D+01
 Gap=     0.449 Goal=   None    Shift=    0.000
 RMSDP=9.51D-05 MaxDP=8.17D-03 DE=-2.46D-02 OVMax= 1.01D-02

 Cycle   3  Pass 1  IDiag  1:
 E= -398.713135289561     Delta-E=       -0.000639147642 Rises=F Damp=F
 DIIS: error= 6.44D-04 at cycle   3 NSaved=   3.
 NSaved= 3 IEnMin= 3 EnMin= -398.713135289561     IErMin= 3 ErrMin= 6.44D-04
 ErrMax= 6.44D-04 EMaxC= 1.00D-01 BMatC= 4.54D-05 BMatP= 5.06D-04
 IDIUse=3 WtCom= 9.94D-01 WtEn= 6.44D-03
 Coeff-Com: -0.115D-03 0.801D-01 0.920D+00
 Coeff-En:   0.000D+00 0.000D+00 0.100D+01
[...]
   D27        1.53491   0.00000   0.00000   0.00000   0.00000   1.53492
   D28       -0.34596   0.00000   0.00001  -0.00001   0.00000  -0.34596
   D29       -2.59325   0.00000  -0.00003   0.00000  -0.00002  -2.59327
   D30        1.80906   0.00000  -0.00002  -0.00001  -0.00003   1.80904
   D31        0.00203   0.00000   0.00000   0.00000   0.00000   0.00203
   D32       -3.13962   0.00000   0.00004   0.00002   0.00006  -3.13956
   D33       -3.13596   0.00000  -0.00005  -0.00001  -0.00006  -3.13602
   D34        0.00558   0.00000  -0.00001   0.00001   0.00000   0.00558
   D35        3.14159   0.00000   0.00000   0.00000   0.00000   3.14159
   D36        0.00000   0.00000   0.00000   0.00000   0.00000   0.00000
   D37        3.14154   0.00000   0.00004   0.00002   0.00006  -3.14159
   D38       -1.16685   0.00000   0.00000   0.00000   0.00000  -1.16685
   D39       -3.14154   0.00000  -0.00004  -0.00002  -0.00006   3.14159
   D40        0.00000   0.00000   0.00000   0.00000   0.00000   0.00000
   D41        1.97479   0.00000  -0.00004  -0.00002  -0.00006   1.97473
   D42        1.16685   0.00000   0.00000   0.00000   0.00000   1.16685
   D43       -1.97479   0.00000   0.00004   0.00002   0.00006  -1.97473
   D44        0.00000   0.00000   0.00000   0.00000   0.00000   0.00000
   D45       -1.53491   0.00000   0.00000   0.00000   0.00000  -1.53492
   D46        0.34596   0.00000  -0.00001   0.00001   0.00000   0.34596
   D47        2.59325   0.00000   0.00003   0.00000   0.00002   2.59327
   D48       -1.80906   0.00000   0.00002   0.00001   0.00003  -1.80904
   D49        1.53491   0.00000   0.00000   0.00000   0.00000   1.53492
   D50       -0.34596   0.00000   0.00001  -0.00001   0.00000  -0.34596
   D51       -2.59325   0.00000  -0.00003   0.00000  -0.00002  -2.59327
   D52        1.80906   0.00000  -0.00002  -0.00001  -0.00003   1.80904
   D53        0.50360   0.00000  -0.00001   0.00001   0.00000   0.50360
   D54        0.00000   0.00000   0.00000   0.00000   0.00000   0.00000
   D55       -0.50360   0.00000   0.00001  -0.00001   0.00000  -0.50360
   D56        0.00000   0.00000   0.00000   0.00000   0.00000   0.00000
   D57       -0.50360   0.00000   0.00001  -0.00001   0.00000  -0.50360
   D58        0.50360   0.00000  -0.00001   0.00001   0.00000   0.50360
         Item               Value     Threshold  Converged?
 Maximum Force            0.000002     0.000015     YES
 RMS     Force            0.000001     0.000010     YES
 Maximum Displacement     0.000057     0.000060     YES
 RMS     Displacement     0.000017     0.000040     YES
 Predicted change in Energy=-7.589123D-10
 Optimization completed.
    -- Stationary point found.
                           ----------------------------
                           !   Optimized Parameters   !
                           ! (Angstroms and Degrees)  !
 --------------------------                            --------------------------
 ! Name  Definition              Value          Derivative Info.                !
 --------------------------------------------------------------------------------
 ! R1    R(1,2)                  1.3944         -DE/DX =    0.0                 !
 ! R2    R(1,6)                  1.3944         -DE/DX =    0.0                 !
 ! R3    R(1,7)                  1.0817         -DE/DX =    0.0                 !
 ! R4    R(1,15)                 2.8528         -DE/DX =    0.0                 !
 ! R5    R(2,3)                  1.3936         -DE/DX =    0.0                 !
 ! R6    R(2,8)                  1.0813         -DE/DX =    0.0                 !
 ! R7    R(2,15)                 3.0763         -DE/DX =    0.0                 !
 ! R8    R(3,4)                  1.3944         -DE/DX =    0.0                 !
 ! R9    R(3,9)                  1.0813         -DE/DX =    0.0                 !
 ! R10   R(3,14)                 3.0763         -DE/DX =    0.0                 !
 ! R11   R(4,5)                  1.3944         -DE/DX =    0.0                 !
 ! R12   R(4,10)                 1.0817         -DE/DX =    0.0                 !
 ! R13   R(4,14)                 2.8528         -DE/DX =    0.0                 !
 ! R14   R(5,6)                  1.3936         -DE/DX =    0.0                 !
 ! R15   R(5,11)                 1.0813         -DE/DX =    0.0                 !
 ! R16   R(5,14)                 3.0763         -DE/DX =    0.0                 !
 ! R17   R(6,12)                 1.0813         -DE/DX =    0.0                 !
 ! R18   R(6,15)                 3.0763         -DE/DX =    0.0                 !
 ! R19   R(13,14)                1.3369         -DE/DX =    0.0                 !
 ! R20   R(13,15)                1.3369         -DE/DX =    0.0                 !
 ! A1    A(2,1,6)              120.0316         -DE/DX =    0.0                 !
 ! A2    A(2,1,7)              119.984          -DE/DX =    0.0                 !
 ! A3    A(6,1,7)              119.984          -DE/DX =    0.0                 !
 ! A4    A(7,1,15)              99.136          -DE/DX =    0.0                 !
 ! A5    A(1,2,3)              119.9842         -DE/DX =    0.0                 !
 ! A6    A(1,2,8)              120.0266         -DE/DX =    0.0                 !
 ! A7    A(3,2,8)              119.9892         -DE/DX =    0.0                 !
 ! A8    A(3,2,15)              94.8038         -DE/DX =    0.0                 !
 ! A9    A(8,2,15)             107.3024         -DE/DX =    0.0                 !
 ! A10   A(2,3,4)              119.9842         -DE/DX =    0.0                 !
 ! A11   A(2,3,9)              119.9892         -DE/DX =    0.0                 !
 ! A12   A(2,3,14)              94.8038         -DE/DX =    0.0                 !
 ! A13   A(4,3,9)              120.0266         -DE/DX =    0.0                 !
 ! A14   A(9,3,14)             107.3024         -DE/DX =    0.0                 !
 ! A15   A(3,4,5)              120.0316         -DE/DX =    0.0                 !
 ! A16   A(3,4,10)             119.984          -DE/DX =    0.0                 !
 ! A17   A(5,4,10)             119.984          -DE/DX =    0.0                 !
 ! A18   A(10,4,14)             99.136          -DE/DX =    0.0                 !
 ! A19   A(4,5,6)              119.9842         -DE/DX =    0.0                 !
 ! A20   A(4,5,11)             120.0266         -DE/DX =    0.0                 !
 ! A21   A(6,5,11)             119.9892         -DE/DX =    0.0                 !
 ! A22   A(6,5,14)              94.8038         -DE/DX =    0.0                 !
 ! A23   A(11,5,14)            107.3024         -DE/DX =    0.0                 !
 ! A24   A(1,6,5)              119.9842         -DE/DX =    0.0                 !
 ! A25   A(1,6,12)             120.0266         -DE/DX =    0.0                 !
 ! A26   A(5,6,12)             119.9892         -DE/DX =    0.0                 !
 ! A27   A(5,6,15)              94.8038         -DE/DX =    0.0                 !
 ! A28   A(12,6,15)            107.3024         -DE/DX =    0.0                 !
 ! A29   A(14,13,15)            91.1133         -DE/DX =    0.0                 !
 ! A30   A(3,14,5)              46.2323         -DE/DX =    0.0                 !
 ! A31   A(3,14,13)            125.5576         -DE/DX =    0.0                 !
 ! A32   A(4,14,13)            143.3            -DE/DX =    0.0                 !
 ! A33   A(5,14,13)            125.5576         -DE/DX =    0.0                 !
 ! A34   A(1,15,13)            143.3            -DE/DX =    0.0                 !
 ! A35   A(2,15,6)              46.2323         -DE/DX =    0.0                 !
 ! A36   A(2,15,13)            125.5576         -DE/DX =    0.0                 !
 ! A37   A(6,15,13)            125.5576         -DE/DX =    0.0                 !
 ! D1    D(6,1,2,3)              0.1163         -DE/DX =    0.0                 !
 ! D2    D(6,1,2,8)           -179.8869         -DE/DX =    0.0                 !
 ! D3    D(7,1,2,3)           -179.6774         -DE/DX =    0.0                 !
 ! D4    D(7,1,2,8)              0.3194         -DE/DX =    0.0                 !
 ! D5    D(2,1,6,5)             -0.1163         -DE/DX =    0.0                 !
 ! D6    D(2,1,6,12)           179.8869         -DE/DX =    0.0                 !
 ! D7    D(7,1,6,5)            179.6774         -DE/DX =    0.0                 !
 ! D8    D(7,1,6,12)            -0.3194         -DE/DX =    0.0                 !
 ! D9    D(7,1,15,13)          180.0            -DE/DX =    0.0                 !
 ! D10   D(1,2,3,4)              0.0            -DE/DX =    0.0                 !
 ! D11   D(1,2,3,9)           -180.0031         -DE/DX =    0.0                 !
 ! D12   D(1,2,3,14)           -66.8557         -DE/DX =    0.0                 !
 ! D13   D(8,2,3,4)            180.0031         -DE/DX =    0.0                 !
 ! D14   D(8,2,3,9)              0.0            -DE/DX =    0.0                 !
 ! D15   D(8,2,3,14)           113.1474         -DE/DX =    0.0                 !
 ! D16   D(15,2,3,4)            66.8557         -DE/DX =    0.0                 !
 ! D17   D(15,2,3,9)          -113.1474         -DE/DX =    0.0                 !
 ! D18   D(15,2,3,14)            0.0            -DE/DX =    0.0                 !
 ! D19   D(3,2,15,6)           -87.9441         -DE/DX =    0.0                 !
 ! D20   D(3,2,15,13)           19.8219         -DE/DX =    0.0                 !
 ! D21   D(8,2,15,6)           148.5823         -DE/DX =    0.0                 !
 ! D22   D(8,2,15,13)         -103.6517         -DE/DX =    0.0                 !
 ! D23   D(2,3,4,5)             -0.1163         -DE/DX =    0.0                 !
 ! D24   D(2,3,4,10)           179.6774         -DE/DX =    0.0                 !
 ! D25   D(9,3,4,5)            179.8869         -DE/DX =    0.0                 !
 ! D26   D(9,3,4,10)            -0.3194         -DE/DX =    0.0                 !
 ! D27   D(2,3,14,5)            87.9441         -DE/DX =    0.0                 !
 ! D28   D(2,3,14,13)          -19.8219         -DE/DX =    0.0                 !
 ! D29   D(9,3,14,5)          -148.5823         -DE/DX =    0.0                 !
 ! D30   D(9,3,14,13)          103.6517         -DE/DX =    0.0                 !
 ! D31   D(3,4,5,6)              0.1163         -DE/DX =    0.0                 !
 ! D32   D(3,4,5,11)          -179.8869         -DE/DX =    0.0                 !
 ! D33   D(10,4,5,6)          -179.6774         -DE/DX =    0.0                 !
 ! D34   D(10,4,5,11)            0.3194         -DE/DX =    0.0                 !
 ! D35   D(10,4,14,13)         180.0            -DE/DX =    0.0                 !
 ! D36   D(4,5,6,1)              0.0            -DE/DX =    0.0                 !
 ! D37   D(4,5,6,12)          -180.0031         -DE/DX =    0.0                 !
 ! D38   D(4,5,6,15)           -66.8557         -DE/DX =    0.0                 !
 ! D39   D(11,5,6,1)           180.0031         -DE/DX =    0.0                 !
 ! D40   D(11,5,6,12)            0.0            -DE/DX =    0.0                 !
 ! D41   D(11,5,6,15)          113.1474         -DE/DX =    0.0                 !
 ! D42   D(14,5,6,1)            66.8557         -DE/DX =    0.0                 !
 ! D43   D(14,5,6,12)         -113.1474         -DE/DX =    0.0                 !
 ! D44   D(14,5,6,15)            0.0            -DE/DX =    0.0                 !
 ! D45   D(6,5,14,3)           -87.9441         -DE/DX =    0.0                 !
 ! D46   D(6,5,14,13)           19.8219         -DE/DX =    0.0                 !
 ! D47   D(11,5,14,3)          148.5823         -DE/DX =    0.0                 !
 ! D48   D(11,5,14,13)        -103.6517         -DE/DX =    0.0                 !
 ! D49   D(5,6,15,2)            87.9441         -DE/DX =    0.0                 !
 ! D50   D(5,6,15,13)          -19.8219         -DE/DX =    0.0                 !
 ! D51   D(12,6,15,2)         -148.5823         -DE/DX =    0.0                 !
 ! D52   D(12,6,15,13)         103.6517         -DE/DX =    0.0                 !
 ! D53   D(15,13,14,3)          28.8542         -DE/DX =    0.0                 !
 ! D54   D(15,13,14,4)           0.0            -DE/DX =    0.0                 !
 ! D55   D(15,13,14,5)         -28.8542         -DE/DX =    0.0                 !
 ! D56   D(14,13,15,1)           0.0            -DE/DX =    0.0                 !
 ! D57   D(14,13,15,2)         -28.8542         -DE/DX =    0.0                 !
 ! D58   D(14,13,15,6)          28.8542         -DE/DX =    0.0                 !
 --------------------------------------------------------------------------------
 GradGradGradGradGradGradGradGradGradGradGradGradGradGradGradGradGradGrad

 Largest change from initial coordinates is atom   13       0.436 Angstoms.
 Leave Link  103 at Mon Sep  9 15:56:47 2019, MaxMem= 4294967296 cpu:       0.4
 (Enter /opt/g09gh/gaussian/g09/l202.exe)
                          Input orientation:                          
 ---------------------------------------------------------------------
 Center     Atomic      Atomic             Coordinates (Angstroms)
 Number     Number       Type             X           Y           Z
 ---------------------------------------------------------------------
      1          6           0        0.000000   -1.393658    1.064020
      2          6           0        1.207737   -0.696816    1.062795
      3          6           0        1.207737    0.696816    1.062795
      4          6           0        0.000000    1.393658    1.064020
      5          6           0       -1.207737    0.696816    1.062795
      6          6           0       -1.207737   -0.696816    1.062795
      7          1           0        0.000000   -2.475320    1.069294
      8          1           0        2.144314   -1.237314    1.061896
      9          1           0        2.144314    1.237314    1.061896
     10          1           0        0.000000    2.475320    1.069294
     11          1           0       -2.144314    1.237314    1.061896
     12          1           0       -2.144314   -1.237314    1.061896
     13         16           0        0.000000    0.000000   -2.690808
     14          1           0        0.000000    0.954437   -1.754740
     15          1           0        0.000000   -0.954437   -1.754740
 ---------------------------------------------------------------------
                    Distance matrix (angstroms):
                    1          2          3          4          5
     1  C    0.000000
     2  C    1.394353   0.000000
     3  C    2.414272   1.393631   0.000000
     4  C    2.787316   2.414272   1.394353   0.000000
     5  C    2.414272   2.788677   2.415474   1.394353   0.000000
     6  C    1.394353   2.415474   2.788677   2.414272   1.393631
     7  H    1.081675   2.149825   3.394276   3.868981   3.394276
     8  H    2.150007   1.081349   2.148962   3.394127   3.870026
     9  H    3.394127   2.148962   1.081349   2.150007   3.395347
    10  H    3.868981   3.394276   2.149825   1.081675   2.149825
    11  H    3.394127   3.870026   3.395347   2.150007   1.081349
    12  H    2.150007   3.395347   3.870026   3.394127   2.148962
    13  S    4.005124   4.004213   4.004213   4.005124   4.004213
    14  H    3.668645   3.481920   3.076280   2.852774   3.076280
    15  H    2.852774   3.076280   3.481920   3.668645   3.481920
                    6          7          8          9         10
     6  C    0.000000
     7  H    2.149825   0.000000
     8  H    3.395347   2.476044   0.000000
     9  H    3.870026   4.287399   2.474628   0.000000
    10  H    3.394276   4.950639   4.287399   2.476044   0.000000
    11  H    2.148962   4.287399   4.951375   4.288628   2.476044
    12  H    1.081349   2.476044   4.288628   4.951375   4.287399
    13  S    4.004213   4.501731   4.495756   4.495756   4.501731
    14  H    3.481920   4.442792   4.163567   3.551273   3.207531
    15  H    3.076280   3.207531   3.551273   4.163567   4.442792
                   11         12         13         14         15
    11  H    0.000000
    12  H    2.474628   0.000000
    13  S    4.495756   4.495756   0.000000
    14  H    3.551273   4.163567   1.336852   0.000000
    15  H    4.163567   3.551273   1.336852   1.908874   0.000000
 Symmetry turned off by external request.
 Stoichiometry    C6H8S
 Framework group  C2V[C2(S),SGV(C2H4),X(C4H4)]
 Deg. of freedom    12
 Full point group                 C2V     NOp   4
 Rotational constants (GHZ):      2.8260327      1.2204221      1.2153475
 Leave Link  202 at Mon Sep  9 15:56:47 2019, MaxMem= 4294967296 cpu:       0.2
 (Enter /opt/g09gh/gaussian/g09/l601.exe)
 Copying SCF densities to generalized density rwf, IOpCl= 0 IROHF=0.

 **********************************************************************

            Population analysis using the SCF density.

 **********************************************************************

 Electronic spatial extent (au):  <R**2>=           1106.7669
 Charge=              0.0000 electrons
 Dipole moment (field-independent basis, Debye):
    X=              0.0000    Y=              0.0000    Z=              1.6441  Tot=              1.6441
 Quadrupole moment (field-independent basis, Debye-Ang):
   XX=            -47.9881   YY=            -43.9562   ZZ=            -61.1290
   XY=              0.0000   XZ=              0.0000   YZ=              0.0000
 Traceless Quadrupole moment (field-independent basis, Debye-Ang):
   XX=              3.0363   YY=              7.0683   ZZ=            -10.1046
   XY=              0.0000   XZ=              0.0000   YZ=              0.0000
 Octapole moment (field-independent basis, Debye-Ang**2):
  XXX=              0.0000  YYY=              0.0000  ZZZ=              6.2542  XYY=              0.0000
  XXY=              0.0000  XXZ=             10.4780  XZZ=              0.0000  YZZ=              0.0000
  YYZ=             -0.0310  XYZ=              0.0000
 Hexadecapole moment (field-independent basis, Debye-Ang**3):
 XXXX=           -289.9133 YYYY=           -290.0142 ZZZZ=          -1005.6406 XXXY=              0.0000
 XXXZ=              0.0000 YYYX=              0.0000 YYYZ=              0.0000 ZZZX=              0.0000
 ZZZY=              0.0000 XXYY=            -97.0025 XXZZ=           -221.8916 YYZZ=           -194.8844
 XXYZ=              0.0000 YYXZ=              0.0000 ZZXY=              0.0000
 No NMR shielding tensors so no spin-rotation constants.
 Leave Link  601 at Mon Sep  9 15:56:48 2019, MaxMem= 4294967296 cpu:       2.4
 (Enter /opt/g09gh/gaussian/g09/l9999.exe)

 Test job not archived.
 1\1\GINC-NODE51\FOpt\RMP2-FC\CC-pVTZ\C6H8S1\XY3866\09-Sep-2019\0\\#p M
 P2/cc-pvtz counterpoise=2 IOP(5/13=1) scf=tight Symmetry=None MaxDisk=
 100GB Opt=tight\\Opt=tight\\0,1\C,-0.0000000001,-1.3936579721,1.064020
 0058\C,1.2077368277,-0.69681569,1.0627952669\C,1.207736828,0.696815690
 1,1.0627952694\C,-0.0000000002,1.393657972,1.0640200075\C,-1.207736827
 6,0.6968156897,1.062795268\C,-1.2077368275,-0.6968156902,1.0627952687\
 H,0.,-2.4753196203,1.0692944066\H,2.14431387,-1.2373142376,1.061896421
 1\H,2.1443138699,1.2373142385,1.0618964194\H,-0.0000000011,2.475319620
 3,1.0692944074\H,-2.1443138696,1.2373142377,1.0618964186\H,-2.14431387
 01,-1.2373142379,1.0618964227\S,0.0000000004,0.0000000004,-2.690808246
 6\H,0.0000000031,0.9544367604,-1.7547398166\H,-0.0000000028,-0.9544367
 612,-1.754739819\\Version=EM64L-G09RevA.02\HF=-398.7127879\MP2=-398.90
 36132\RMSD=3.685e-09\RMSF=1.690e-06\Dipole=0.,0.,0.6468315\Quadrupole=
 2.2574226,5.2550768,-7.5124994,0.,0.,0.\PG=C02V [C2(S1),SGV(C2H4),X(C4
 H4)]\\@


 A COMPLEXITY IS MERELY A DISARRANGEMENT OF SIMPLICITIES.

                                    -- G. O. ABELL IN "EXPLORATION OF THE UNIVERSE"
 Job cpu time:  1 days  4 hours 19 minutes 20.0 seconds.
 File lengths (MBytes):  RWF=     69 Int=      0 D2E=      0 Chk=     18 Scr=      1
 Normal termination of Gaussian 09 at Mon Sep  9 15:56:48 2019.
