 Entering Gaussian System, Link 0=g09
 Input=formicacid_formimidamide_dimer.com
 Output=formicacid_formimidamide_dimer.out
 Initial command:
 /opt/g09gh/gaussian/g09/l1.exe /scratch/xy3866/Gau-15917.inp -scrdir=/scratch/xy3866/
 Entering Link 1 = /opt/g09gh/gaussian/g09/l1.exe PID=     15918.
  
 Copyright (c) 1988,1990,1992,1993,1995,1998,2003,2009, Gaussian, Inc.
                  All Rights Reserved.
  
 This is part of the Gaussian(R) 09 program.  It is based on
 the Gaussian(R) 03 system (copyright 2003, Gaussian, Inc.),
 the Gaussian(R) 98 system (copyright 1998, Gaussian, Inc.),
 the Gaussian(R) 94 system (copyright 1995, Gaussian, Inc.),
 the Gaussian 92(TM) system (copyright 1992, Gaussian, Inc.),
 the Gaussian 90(TM) system (copyright 1990, Gaussian, Inc.),
 the Gaussian 88(TM) system (copyright 1988, Gaussian, Inc.),
 the Gaussian 86(TM) system (copyright 1986, Carnegie Mellon
 University), and the Gaussian 82(TM) system (copyright 1983,
 Carnegie Mellon University). Gaussian is a federally registered
 trademark of Gaussian, Inc.
  
 This software contains proprietary and confidential information,
 including trade secrets, belonging to Gaussian, Inc.
  
 This software is provided under written license and may be
 used, copied, transmitted, or stored only in accord with that
 written license.
  
 The following legend is applicable only to US Government
 contracts under FAR:
  
                    RESTRICTED RIGHTS LEGEND
  
 Use, reproduction and disclosure by the US Government is
 subject to restrictions as set forth in subparagraphs (a)
 and (c) of the Commercial Computer Software - Restricted
 Rights clause in FAR 52.227-19.
  
 Gaussian, Inc.
 340 Quinnipiac St., Bldg. 40, Wallingford CT 06492
  
  
 ---------------------------------------------------------------
 Warning -- This program may not be used in any manner that
 competes with the business of Gaussian, Inc. or will provide
 assistance to any competitor of Gaussian, Inc.  The licensee
 of this program is prohibited from giving any competitor of
 Gaussian, Inc. access to this program.  By using this program,
 the user acknowledges that Gaussian, Inc. is engaged in the
 business of creating and licensing software in the field of
 computational chemistry and represents and warrants to the
 licensee that it is not a competitor of Gaussian, Inc. and that
 it will not use this program in any manner prohibited above.
 ---------------------------------------------------------------
  

 Cite this work as:
 Gaussian 09, Revision A.02,
 M. J. Frisch, G. W. Trucks, H. B. Schlegel, G. E. Scuseria, 
 M. A. Robb, J. R. Cheeseman, G. Scalmani, V. Barone, B. Mennucci, 
 G. A. Petersson, H. Nakatsuji, M. Caricato, X. Li, H. P. Hratchian, 
 A. F. Izmaylov, J. Bloino, G. Zheng, J. L. Sonnenberg, M. Hada, 
 M. Ehara, K. Toyota, R. Fukuda, J. Hasegawa, M. Ishida, T. Nakajima, 
 Y. Honda, O. Kitao, H. Nakai, T. Vreven, J. A. Montgomery, Jr., 
 J. E. Peralta, F. Ogliaro, M. Bearpark, J. J. Heyd, E. Brothers, 
 K. N. Kudin, V. N. Staroverov, R. Kobayashi, J. Normand, 
 K. Raghavachari, A. Rendell, J. C. Burant, S. S. Iyengar, J. Tomasi, 
 M. Cossi, N. Rega, J. M. Millam, M. Klene, J. E. Knox, J. B. Cross, 
 V. Bakken, C. Adamo, J. Jaramillo, R. Gomperts, R. E. Stratmann, 
 O. Yazyev, A. J. Austin, R. Cammi, C. Pomelli, J. W. Ochterski, 
 R. L. Martin, K. Morokuma, V. G. Zakrzewski, G. A. Voth, 
 P. Salvador, J. J. Dannenberg, S. Dapprich, A. D. Daniels, 
 O. Farkas, J. B. Foresman, J. V. Ortiz, J. Cioslowski, 
 and D. J. Fox, Gaussian, Inc., Wallingford CT, 2009.
 
 ******************************************
 Gaussian 09:  EM64L-G09RevA.02 11-Jun-2009
                 6-Sep-2019 
 ******************************************
 %NoSave
 %chk=formicacid_formimidamide_dimer.chk
 %nproc=8
 Will use up to    8 processors via shared memory.
 %Mem=32GB
 ----------------------------------------------------------------------
 #p MP2/cc-pvtz counterpoise=2 IOP(5/13=1) scf=tight Symmetry=None MaxD
 isk=100GB Opt=tight
 ----------------------------------------------------------------------
 1/7=10,18=20,19=15,38=1,62=2/1,3;
 2/9=110,12=2,15=1,17=6,18=5,40=1/2;
 1/7=10,18=20,19=15,38=1,53=5172,62=2,63=100/22;
 3/5=16,6=1,11=9,16=1,25=1,30=1,71=1/1,2,3;
 4//1;
 5/5=2,13=1,32=2,38=5/2;
 8/6=4,10=1/1;
 9/15=2,16=-3/6;
 10/5=1,31=1/2;
 6/7=2,8=2,9=2,10=2/1;
 7/7=1,12=2,30=1,33=-1/1,2,3,16;
 1/7=10,18=20,19=15,53=4052,62=2,63=101/22;
 3/5=7,6=11,11=9,16=1,25=1,30=1,71=1,82=7/1,2,3;
 4//1;
 5/5=2,13=1,32=2,38=5/2;
 8/6=4,10=1/1;
 9/15=2,16=-3/6;
 10/5=1,31=1/2;
 6/7=2,8=2,9=2,10=2/1;
 7/7=1,12=2,30=1,33=-1/1,2,3,16;
 1/7=10,18=20,19=15,53=3042,62=2,63=102/22;
 3/5=7,6=11,11=9,16=1,25=1,30=1,71=1,82=7/1,2,3;
 4//1;
 5/5=2,13=1,32=2,38=5/2;
 8/6=4,10=1/1;
 9/15=2,16=-3/6;
 10/5=1,31=1/2;
 6/7=2,8=2,9=2,10=2/1;
 7/7=1,12=2,30=1,33=-1/1,2,3,16;
 1/7=10,18=20,19=15,53=2032,62=2,63=103/22;
 3/5=7,6=11,11=9,16=1,25=1,30=1,71=1,82=7/1,2,3;
 4//1;
 5/5=2,13=1,32=2,38=5/2;
 8/6=4,10=1/1;
 9/15=2,16=-3/6;
 10/5=1,31=1/2;
 6/7=2,8=2,9=2,10=2/1;
 7/7=1,12=2,30=1,33=-1/1,2,3,16;
 1/7=10,18=20,19=15,53=1022,62=2,63=104/22;
 3/5=7,6=11,11=9,16=1,25=1,30=1,71=1,82=7/1,2,3;
 4//1;
 5/5=2,13=1,32=2,38=5/2;
 8/6=4,10=1/1;
 9/15=2,16=-3/6;
 10/5=1,31=1/2;
 6/7=2,8=2,9=2,10=2/1;
 7/7=1,12=2,30=1,33=-1/1,2,3,16;
 1/7=10,18=20,19=15,53=5015,62=2,63=105/22;
 7/9=1,44=-1/16;
 1/7=10,18=20,19=15,62=2,63=100/3(2);
 2/9=110,15=1/2;
 99//99;
 2/9=110,15=1/2;
 1/7=10,18=20,19=15,53=5173,62=2,63=100/22;
 3/5=7,6=11,11=9,16=1,25=1,30=1,71=1,82=7/1,2,3;
 4/5=5,16=3/1;
 5/5=2,13=1,32=2,38=5/2;
 8/6=4,10=1/1;
 9/15=2,16=-3/6;
 10/5=1,31=1/2;
 7/7=1,12=2,30=1,33=-1/1,2,3,16;
 1/7=10,18=20,19=15,53=4053,62=2,63=101/22;
 3/5=7,6=11,11=9,16=1,25=1,30=1,71=1,82=7/1,2,3;
 4/5=5,16=3/1;
 5/5=2,13=1,32=2,38=5/2;
 8/6=4,10=1/1;
 9/15=2,16=-3/6;
 10/5=1,31=1/2;
 7/7=1,12=2,30=1,33=-1/1,2,3,16;
 1/7=10,18=20,19=15,53=3043,62=2,63=102/22;
 3/5=7,6=11,11=9,16=1,25=1,30=1,71=1,82=7/1,2,3;
 4/5=5,16=3/1;
 5/5=2,13=1,32=2,38=5/2;
 8/6=4,10=1/1;
 9/15=2,16=-3/6;
 10/5=1,31=1/2;
 7/7=1,12=2,30=1,33=-1/1,2,3,16;
 1/7=10,18=20,19=15,53=2033,62=2,63=103/22;
 3/5=7,6=11,11=9,16=1,25=1,30=1,71=1,82=7/1,2,3;
 4/5=5,16=3/1;
 5/5=2,13=1,32=2,38=5/2;
 8/6=4,10=1/1;
 9/15=2,16=-3/6;
 10/5=1,31=1/2;
 7/7=1,12=2,30=1,33=-1/1,2,3,16;
 1/7=10,18=20,19=15,53=1024,62=2,63=104/22;
 3/5=7,6=11,11=9,16=1,25=1,30=1,71=1,82=7/1,2,3;
 4/5=5,16=3/1;
 5/5=2,13=1,32=2,38=5/2;
 8/6=4,10=1/1;
 9/15=2,16=-3/6;
 10/5=1,31=1/2;
 7/7=1,12=2,30=1,33=-1/1,2,3,16;
 1/7=10,18=20,19=15,53=5015,62=2,63=105/22;
 7/9=1,44=-1/16;
 1/7=10,18=20,19=15,62=2,63=100/3(-43);
 2/9=110,15=1/2;
 6/7=2,8=2,9=2,10=2/1;
 99//99;
 Leave Link    1 at Fri Sep  6 17:04:56 2019, MaxMem= 4294967296 cpu:       0.3
 (Enter /opt/g09gh/gaussian/g09/l101.exe)
 ---------
 Opt=tight
 ---------
 Symbolic Z-matrix:
 Charge =  0 Multiplicity = 1 in supermolecule
 Charge =  0 Multiplicity = 1 in fragment  1.
 Charge =  0 Multiplicity = 1 in fragment  2.
 C(Fragment=1)        -1.76495   0.15236   0. 
 H(Fragment=1)        -2.87328   0.25118   0. 
 O(Fragment=1)        -1.11608   1.20863   0. 
 O(Fragment=1)        -1.38647  -1.09128   0. 
 H(Fragment=1)        -0.29341  -1.17844   0. 
 C(Fragment=2)         1.82083  -0.16737   0. 
 H(Fragment=2)         2.92192  -0.26554   0. 
 N(Fragment=2)         1.07145  -1.23581   0. 
 H(Fragment=2)         1.63171  -2.08651   0. 
 N(Fragment=2)         1.45046   1.12181   0. 
 H(Fragment=2)         0.44434   1.35982   0. 
 H(Fragment=2)         2.18037   1.81973   0. 
 
 NAtoms=     12 NQM=     12 NQMF=      0 NMic=      0 NMicF=      0 NTot=     12.
                    Isotopes and Nuclear Properties:
 (Nuclear quadrupole moments (NQMom) in fm**2, nuclear magnetic moments (NMagM)
  in nuclear magnetons)

  Atom         1           2           3           4           5           6           7           8           9          10
 IAtWgt=          12           1          16          16           1          12           1          14           1          14
 AtmWgt=  12.0000000   1.0078250  15.9949146  15.9949146   1.0078250  12.0000000   1.0078250  14.0030740   1.0078250  14.0030740
 NucSpn=           0           1           0           0           1           0           1           2           1           2
 AtZEff=   0.0000000   0.0000000   0.0000000   0.0000000   0.0000000   0.0000000   0.0000000   0.0000000   0.0000000   0.0000000
 NQMom=    0.0000000   0.0000000   0.0000000   0.0000000   0.0000000   0.0000000   0.0000000   2.0440000   0.0000000   2.0440000
 NMagM=    0.0000000   2.7928460   0.0000000   0.0000000   2.7928460   0.0000000   2.7928460   0.4037610   2.7928460   0.4037610

  Atom        11          12
 IAtWgt=           1           1
 AtmWgt=   1.0078250   1.0078250
 NucSpn=           1           1
 AtZEff=   0.0000000   0.0000000
 NQMom=    0.0000000   0.0000000
 NMagM=    2.7928460   2.7928460
 Leave Link  101 at Fri Sep  6 17:04:56 2019, MaxMem= 4294967296 cpu:       0.7
 (Enter /opt/g09gh/gaussian/g09/l103.exe)

 GradGradGradGradGradGradGradGradGradGradGradGradGradGradGradGradGradGrad
 Berny optimization.
 Initialization pass.
                           ----------------------------
                           !    Initial Parameters    !
                           ! (Angstroms and Degrees)  !
 --------------------------                            --------------------------
 ! Name  Definition              Value          Derivative Info.                !
 --------------------------------------------------------------------------------
 ! R1    R(1,2)                  1.1127         estimate D2E/DX2                !
 ! R2    R(1,3)                  1.2396         estimate D2E/DX2                !
 ! R3    R(1,4)                  1.3            estimate D2E/DX2                !
 ! R4    R(3,11)                 1.5677         estimate D2E/DX2                !
 ! R5    R(4,5)                  1.0965         estimate D2E/DX2                !
 ! R6    R(5,8)                  1.3661         estimate D2E/DX2                !
 ! R7    R(6,7)                  1.1055         estimate D2E/DX2                !
 ! R8    R(6,8)                  1.305          estimate D2E/DX2                !
 ! R9    R(6,10)                 1.3413         estimate D2E/DX2                !
 ! R10   R(8,9)                  1.0186         estimate D2E/DX2                !
 ! R11   R(10,11)                1.0339         estimate D2E/DX2                !
 ! R12   R(10,12)                1.0099         estimate D2E/DX2                !
 ! A1    A(2,1,3)              116.4672         estimate D2E/DX2                !
 ! A2    A(2,1,4)              112.0221         estimate D2E/DX2                !
 ! A3    A(3,1,4)              131.5107         estimate D2E/DX2                !
 ! A4    A(1,3,11)             127.0969         estimate D2E/DX2                !
 ! A5    A(1,4,5)              111.4861         estimate D2E/DX2                !
 ! A6    A(7,6,8)              119.9495         estimate D2E/DX2                !
 ! A7    A(7,6,10)             111.1239         estimate D2E/DX2                !
 ! A8    A(8,6,10)             128.9266         estimate D2E/DX2                !
 ! A9    A(5,8,6)              122.6379         estimate D2E/DX2                !
 ! A10   A(5,8,9)              125.7755         estimate D2E/DX2                !
 ! A11   A(6,8,9)              111.5866         estimate D2E/DX2                !
 ! A12   A(6,10,11)            119.338          estimate D2E/DX2                !
 ! A13   A(6,10,12)            117.6882         estimate D2E/DX2                !
 ! A14   A(11,10,12)           122.9737         estimate D2E/DX2                !
 ! A15   A(3,11,10)            161.1562         estimate D2E/DX2                !
 ! A16   L(4,5,8,1,-1)         177.8477         estimate D2E/DX2                !
 ! A17   L(4,5,8,1,-2)         180.0            estimate D2E/DX2                !
 ! D1    D(2,1,3,11)           180.0            estimate D2E/DX2                !
 ! D2    D(4,1,3,11)             0.0            estimate D2E/DX2                !
 ! D3    D(2,1,4,5)            180.0            estimate D2E/DX2                !
 ! D4    D(3,1,4,5)              0.0            estimate D2E/DX2                !
 ! D5    D(1,3,11,10)            0.0            estimate D2E/DX2                !
 ! D6    D(1,4,8,6)              0.0            estimate D2E/DX2                !
 ! D7    D(1,4,8,9)            180.0            estimate D2E/DX2                !
 ! D8    D(7,6,8,5)            180.0            estimate D2E/DX2                !
 ! D9    D(7,6,8,9)              0.0            estimate D2E/DX2                !
 ! D10   D(10,6,8,5)             0.0            estimate D2E/DX2                !
 ! D11   D(10,6,8,9)           180.0            estimate D2E/DX2                !
 ! D12   D(7,6,10,11)          180.0            estimate D2E/DX2                !
 ! D13   D(7,6,10,12)            0.0            estimate D2E/DX2                !
 ! D14   D(8,6,10,11)            0.0            estimate D2E/DX2                !
 ! D15   D(8,6,10,12)          180.0            estimate D2E/DX2                !
 ! D16   D(6,10,11,3)            0.0            estimate D2E/DX2                !
 ! D17   D(12,10,11,3)         180.0            estimate D2E/DX2                !
 --------------------------------------------------------------------------------
 Trust Radius=3.00D-01 FncErr=1.00D-07 GrdErr=1.00D-07
 Number of steps in this run=  56 maximum allowed number of steps= 100.
 GradGradGradGradGradGradGradGradGradGradGradGradGradGradGradGradGradGrad

 Leave Link  103 at Fri Sep  6 17:04:56 2019, MaxMem= 4294967296 cpu:       0.1
 (Enter /opt/g09gh/gaussian/g09/l202.exe)
                          Input orientation:                          
 ---------------------------------------------------------------------
 Center     Atomic      Atomic             Coordinates (Angstroms)
 Number     Number       Type             X           Y           Z
 ---------------------------------------------------------------------
      1          6           0       -1.764949    0.152358    0.000000
      2          1           0       -2.873279    0.251181    0.000000
      3          8           0       -1.116083    1.208626    0.000000
      4          8           0       -1.386467   -1.091278    0.000000
      5          1           0       -0.293405   -1.178441    0.000000
      6          6           0        1.820826   -0.167365    0.000000
      7          1           0        2.921916   -0.265543    0.000000
      8          7           0        1.071448   -1.235809    0.000000
      9          1           0        1.631714   -2.086509    0.000000
     10          7           0        1.450464    1.121810    0.000000
     11          1           0        0.444336    1.359823    0.000000
     12          1           0        2.180366    1.819731    0.000000
 ---------------------------------------------------------------------
                    Distance matrix (angstroms):
                    1          2          3          4          5
     1  C    0.000000
     2  H    1.112727   0.000000
     3  O    1.239649   2.001109   0.000000
     4  O    1.299954   2.003199   2.315743   0.000000
     5  H    1.984053   2.949503   2.524853   1.096531   0.000000
     6  C    3.600001   4.712727   3.243268   3.337715   2.343554
     7  H    4.705460   5.818186   4.298676   4.386799   3.342405
     8  N    3.157872   4.215686   3.280328   2.462160   1.366058
     9  H    4.068150   5.075406   4.290489   3.178033   2.128537
    10  N    3.358381   4.410527   2.568015   3.598046   2.886561
    11  H    2.517720   3.497950   1.567728   3.059369   2.643302
    12  H    4.283182   5.291472   3.352615   4.603941   3.886975
                    6          7          8          9         10
     6  C    0.000000
     7  H    1.105459   0.000000
     8  N    1.305044   2.089414   0.000000
     9  H    1.928439   2.231712   1.018620   0.000000
    10  N    1.341321   2.022355   2.387891   3.213435   0.000000
    11  H    2.055974   2.963143   2.670314   3.645144   1.033897
    12  H    2.019361   2.213202   3.250542   3.944582   1.009876
                   11         12
    11  H    0.000000
    12  H    1.795916   0.000000
 Symmetry turned off by external request.
 Stoichiometry    C2H6N2O2
 Framework group  CS[SG(C2H6N2O2)]
 Deg. of freedom    21
 Full point group                 CS      NOp   2
 Rotational constants (GHZ):      5.4249256      2.5516838      1.7354109
 Leave Link  202 at Fri Sep  6 17:04:56 2019, MaxMem= 4294967296 cpu:       0.1
 (Enter /opt/g09gh/gaussian/g09/l122.exe)
 Leave Link  122 at Fri Sep  6 17:04:56 2019, MaxMem= 4294967296 cpu:       0.0
 (Enter /opt/g09gh/gaussian/g09/l301.exe)
 Standard basis: CC-pVTZ (5D, 7F)
 Ernie: Thresh=  0.10000D-02 Tol=  0.10000D-05 Strict=F.
 Ernie:  18 primitive shells out of 204 were deleted.
 Integral buffers will be    131072 words long.
 Raffenetti 1 integral format.
 Two-electron integral symmetry is turned off.
   264 basis functions,   414 primitive gaussians,   300 cartesian basis functions
    24 alpha electrons       24 beta electrons
       nuclear repulsion energy       238.7076317184 Hartrees.
 IExCor=    0 DFT=F Ex=HF Corr=None ExCW=0 ScaHFX=  1.000000
 ScaDFX=  1.000000  1.000000  1.000000  1.000000 ScalE2=  1.000000  1.000000
 IRadAn=      0 IRanWt=     -1 IRanGd=            0 ICorTp=0
 NAtoms=   12 NActive=   12 NUniq=   12 SFac= 7.50D-01 NAtFMM=   80 NAOKFM=F Big=F
 Leave Link  301 at Fri Sep  6 17:04:56 2019, MaxMem= 4294967296 cpu:       0.5
 (Enter /opt/g09gh/gaussian/g09/l302.exe)
 NPDir=0 NMtPBC=     1 NCelOv=     1 NCel=       1 NClECP=     1 NCelD=      1
         NCelK=      1 NCelE2=     1 NClLst=     1 CellRange=     0.0.
 One-electron integrals computed using PRISM.
 NBasis=   264 RedAO= T  NBF=   264
 NBsUse=   264 1.00D-06 NBFU=   264
 Leave Link  302 at Fri Sep  6 17:04:56 2019, MaxMem= 4294967296 cpu:       1.9
 (Enter /opt/g09gh/gaussian/g09/l303.exe)
 DipDrv:  MaxL=1.
 Leave Link  303 at Fri Sep  6 17:04:56 2019, MaxMem= 4294967296 cpu:       0.4
 (Enter /opt/g09gh/gaussian/g09/l401.exe)
 Harris functional with IExCor=  205 diagonalized for initial guess.
 ExpMin= 1.03D-01 ExpMax= 1.53D+04 ExpMxC= 5.22D+02 IAcc=1 IRadAn=         1 AccDes= 0.00D+00
 HarFok:  IExCor=  205 AccDes= 0.00D+00 IRadAn=         1 IDoV= 1
 ScaDFX=  1.000000  1.000000  1.000000  1.000000
 FoFCou: FMM=F IPFlag=           0 FMFlag=      100000 FMFlg1=           0
         NFxFlg=           0 DoJE=T BraDBF=F KetDBF=T FulRan=T
         Omega=  0.000000  0.000000  1.000000  0.000000  0.000000 ICntrl=     500 IOpCl=  0
         NMat0=    1 NMatS0=    1 NMatT0=    0 NMatD0=    1 NMtDS0=    0 NMtDT0=    0
         I1Cent=           4 NGrid=           0.
 Symmetry not used in FoFCou.
 Harris En= -338.363486688965    
 Leave Link  401 at Fri Sep  6 17:04:57 2019, MaxMem= 4294967296 cpu:       3.3
 (Enter /opt/g09gh/gaussian/g09/l502.exe)
 Closed shell SCF:
 Requested convergence on RMS density matrix=1.00D-08 within  64 cycles.
 Requested convergence on MAX density matrix=1.00D-06.
 Requested convergence on             energy=1.00D-06.
 No special actions if energy rises.
 Using DIIS extrapolation, IDIIS=  1040.
 Two-electron integral symmetry not used.
 Keep R1 ints in memory in canonical form, NReq=1033198901.
 IEnd=      279762 IEndB=      279762 NGot=  4294967296 MDV=  3275498206
 LenX=  3275498206 LenY=  3275407765
 Symmetry not used in FoFDir.
 MinBra= 0 MaxBra= 3 Meth= 1.
 IRaf=       0 NMat=   1 IRICut=       1 DoRegI=T DoRafI=F ISym2E= 0 JSym2E=0.

 Cycle   1  Pass 1  IDiag  1:
 E= -337.710984297557    
 DIIS: error= 3.97D-02 at cycle   1 NSaved=   1.
 NSaved= 1 IEnMin= 1 EnMin= -337.710984297557     IErMin= 1 ErrMin= 3.97D-02
 ErrMax= 3.97D-02 EMaxC= 1.00D-01 BMatC= 6.63D-01 BMatP= 6.63D-01
 IDIUse=3 WtCom= 6.03D-01 WtEn= 3.97D-01
 Coeff-Com:  0.100D+01
 Coeff-En:   0.100D+01
 Coeff:      0.100D+01
 Gap=     0.530 Goal=   None    Shift=    0.000
 GapD=    0.530 DampG=2.000 DampE=0.500 DampFc=1.0000 IDamp=-1.
 RMSDP=1.66D-03 MaxDP=6.87D-02              OVMax= 1.22D-01

 Cycle   2  Pass 1  IDiag  1:
 E= -337.926741492090     Delta-E=       -0.215757194533 Rises=F Damp=F
 DIIS: error= 1.42D-02 at cycle   2 NSaved=   2.
 NSaved= 2 IEnMin= 2 EnMin= -337.926741492090     IErMin= 2 ErrMin= 1.42D-02
 ErrMax= 1.42D-02 EMaxC= 1.00D-01 BMatC= 8.23D-02 BMatP= 6.63D-01
 IDIUse=3 WtCom= 8.58D-01 WtEn= 1.42D-01
 Coeff-Com:  0.191D+00 0.809D+00
 Coeff-En:   0.000D+00 0.100D+01
 Coeff:      0.164D+00 0.836D+00
 Gap=     0.537 Goal=   None    Shift=    0.000
 RMSDP=7.83D-04 MaxDP=2.75D-02 DE=-2.16D-01 OVMax= 5.90D-02

 Cycle   3  Pass 1  IDiag  1:
 E= -337.976019391255     Delta-E=       -0.049277899165 Rises=F Damp=F
 DIIS: error= 6.07D-03 at cycle   3 NSaved=   3.
 NSaved= 3 IEnMin= 3 EnMin= -337.976019391255     IErMin= 3 ErrMin= 6.07D-03
 ErrMax= 6.07D-03 EMaxC= 1.00D-01 BMatC= 1.06D-02 BMatP= 8.23D-02
 IDIUse=3 WtCom= 9.39D-01 WtEn= 6.07D-02
 Coeff-Com: -0.247D-01 0.232D+00 0.792D+00
 Coeff-En:   0.000D+00 0.000D+00 0.100D+01
 Coeff:     -0.232D-01 0.218D+00 0.805D+00
 Gap=     0.511 Goal=   None    Shift=    0.000
 RMSDP=1.75D-04 MaxDP=6.94D-03 DE=-4.93D-02 OVMax= 1.71D-02

 Cycle   4  Pass 1  IDiag  1:
 E= -337.982655939710     Delta-E=       -0.006636548454 Rises=F Damp=F
 DIIS: error= 1.21D-03 at cycle   4 NSaved=   4.
 NSaved= 4 IEnMin= 4 EnMin= -337.982655939710     IErMin= 4 ErrMin= 1.21D-03
 ErrMax= 1.21D-03 EMaxC= 1.00D-01 BMatC= 3.03D-04 BMatP= 1.06D-02
 IDIUse=3 WtCom= 9.88D-01 WtEn= 1.21D-02
 Coeff-Com: -0.977D-02 0.471D-01 0.224D+00 0.738D+00
 Coeff-En:   0.000D+00 0.000D+00 0.000D+00 0.100D+01
 Coeff:     -0.965D-02 0.466D-01 0.222D+00 0.741D+00
 Gap=     0.508 Goal=   None    Shift=    0.000
 RMSDP=4.14D-05 MaxDP=1.35D-03 DE=-6.64D-03 OVMax= 4.73D-03

 Cycle   5  Pass 1  IDiag  1:
 E= -337.982932677938     Delta-E=       -0.000276738228 Rises=F Damp=F
 DIIS: error= 5.21D-04 at cycle   5 NSaved=   5.
 NSaved= 5 IEnMin= 5 EnMin= -337.982932677938     IErMin= 5 ErrMin= 5.21D-04
 ErrMax= 5.21D-04 EMaxC= 1.00D-01 BMatC= 3.04D-05 BMatP= 3.03D-04
 IDIUse=3 WtCom= 9.95D-01 WtEn= 5.21D-03
 Coeff-Com:  0.222D-02-0.220D-01-0.865D-01 0.558D-01 0.105D+01
 Coeff-En:   0.000D+00 0.000D+00 0.000D+00 0.000D+00 0.100D+01
 Coeff:      0.221D-02-0.219D-01-0.861D-01 0.555D-01 0.105D+01
 Gap=     0.509 Goal=   None    Shift=    0.000
 RMSDP=2.23D-05 MaxDP=5.89D-04 DE=-2.77D-04 OVMax= 2.52D-03

 Cycle   6  Pass 1  IDiag  1:
 E= -337.982983088980     Delta-E=       -0.000050411043 Rises=F Damp=F
 DIIS: error= 1.08D-04 at cycle   6 NSaved=   6.
 NSaved= 6 IEnMin= 6 EnMin= -337.982983088980     IErMin= 6 ErrMin= 1.08D-04
 ErrMax= 1.08D-04 EMaxC= 1.00D-01 BMatC= 4.80D-06 BMatP= 3.04D-05
 IDIUse=3 WtCom= 9.99D-01 WtEn= 1.08D-03
 Coeff-Com:  0.169D-02-0.115D-01-0.504D-01-0.685D-01 0.273D+00 0.856D+00
 Coeff-En:   0.000D+00 0.000D+00 0.000D+00 0.000D+00 0.000D+00 0.100D+01
 Coeff:      0.169D-02-0.115D-01-0.503D-01-0.684D-01 0.272D+00 0.856D+00
 Gap=     0.510 Goal=   None    Shift=    0.000
 RMSDP=8.24D-06 MaxDP=2.31D-04 DE=-5.04D-05 OVMax= 6.92D-04

 Cycle   7  Pass 1  IDiag  1:
 E= -337.982990604624     Delta-E=       -0.000007515644 Rises=F Damp=F
 DIIS: error= 6.49D-05 at cycle   7 NSaved=   7.
 NSaved= 7 IEnMin= 7 EnMin= -337.982990604624     IErMin= 7 ErrMin= 6.49D-05
 ErrMax= 6.49D-05 EMaxC= 1.00D-01 BMatC= 4.66D-07 BMatP= 4.80D-06
 IDIUse=1 WtCom= 1.00D+00 WtEn= 0.00D+00
 Coeff-Com: -0.196D-03 0.264D-02 0.107D-01-0.136D-01-0.133D+00 0.524D-02
 Coeff-Com:  0.113D+01
 Coeff:     -0.196D-03 0.264D-02 0.107D-01-0.136D-01-0.133D+00 0.524D-02
 Coeff:      0.113D+01
 Gap=     0.510 Goal=   None    Shift=    0.000
 RMSDP=3.74D-06 MaxDP=1.57D-04 DE=-7.52D-06 OVMax= 5.64D-04

 Cycle   8  Pass 1  IDiag  1:
 E= -337.982991993775     Delta-E=       -0.000001389151 Rises=F Damp=F
 DIIS: error= 1.61D-05 at cycle   8 NSaved=   8.
 NSaved= 8 IEnMin= 8 EnMin= -337.982991993775     IErMin= 8 ErrMin= 1.61D-05
 ErrMax= 1.61D-05 EMaxC= 1.00D-01 BMatC= 7.10D-08 BMatP= 4.66D-07
 IDIUse=1 WtCom= 1.00D+00 WtEn= 0.00D+00
 Coeff-Com: -0.213D-03 0.165D-02 0.693D-02 0.458D-02-0.357D-01-0.112D+00
 Coeff-Com:  0.110D+00 0.102D+01
 Coeff:     -0.213D-03 0.165D-02 0.693D-02 0.458D-02-0.357D-01-0.112D+00
 Coeff:      0.110D+00 0.102D+01
 Gap=     0.510 Goal=   None    Shift=    0.000
 RMSDP=1.35D-06 MaxDP=5.43D-05 DE=-1.39D-06 OVMax= 1.83D-04

 Cycle   9  Pass 1  IDiag  1:
 E= -337.982992164851     Delta-E=       -0.000000171076 Rises=F Damp=F
 DIIS: error= 9.59D-06 at cycle   9 NSaved=   9.
 NSaved= 9 IEnMin= 9 EnMin= -337.982992164851     IErMin= 9 ErrMin= 9.59D-06
 ErrMax= 9.59D-06 EMaxC= 1.00D-01 BMatC= 9.28D-09 BMatP= 7.10D-08
 IDIUse=1 WtCom= 1.00D+00 WtEn= 0.00D+00
 Coeff-Com:  0.221D-05-0.149D-03-0.706D-03 0.712D-03 0.151D-01-0.141D-01
 Coeff-Com: -0.124D+00 0.472D-01 0.108D+01
 Coeff:      0.221D-05-0.149D-03-0.706D-03 0.712D-03 0.151D-01-0.141D-01
 Coeff:     -0.124D+00 0.472D-01 0.108D+01
 Gap=     0.510 Goal=   None    Shift=    0.000
 RMSDP=5.42D-07 MaxDP=2.19D-05 DE=-1.71D-07 OVMax= 9.67D-05

 Cycle  10  Pass 1  IDiag  1:
 E= -337.982992191491     Delta-E=       -0.000000026640 Rises=F Damp=F
 DIIS: error= 2.73D-06 at cycle  10 NSaved=  10.
 NSaved=10 IEnMin=10 EnMin= -337.982992191491     IErMin=10 ErrMin= 2.73D-06
 ErrMax= 2.73D-06 EMaxC= 1.00D-01 BMatC= 1.53D-09 BMatP= 9.28D-09
 IDIUse=1 WtCom= 1.00D+00 WtEn= 0.00D+00
 Coeff-Com:  0.305D-04-0.243D-03-0.978D-03-0.114D-02 0.641D-02 0.152D-01
 Coeff-Com: -0.791D-02-0.157D+00-0.795D-02 0.115D+01
 Coeff:      0.305D-04-0.243D-03-0.978D-03-0.114D-02 0.641D-02 0.152D-01
 Coeff:     -0.791D-02-0.157D+00-0.795D-02 0.115D+01
 Gap=     0.510 Goal=   None    Shift=    0.000
 RMSDP=2.22D-07 MaxDP=7.34D-06 DE=-2.66D-08 OVMax= 3.58D-05

 Cycle  11  Pass 1  IDiag  1:
 E= -337.982992195871     Delta-E=       -0.000000004380 Rises=F Damp=F
 DIIS: error= 1.15D-06 at cycle  11 NSaved=  11.
 NSaved=11 IEnMin=11 EnMin= -337.982992195871     IErMin=11 ErrMin= 1.15D-06
 ErrMax= 1.15D-06 EMaxC= 1.00D-01 BMatC= 1.99D-10 BMatP= 1.53D-09
 IDIUse=1 WtCom= 1.00D+00 WtEn= 0.00D+00
 Coeff-Com: -0.733D-06 0.223D-04 0.156D-03-0.280D-03-0.243D-02 0.148D-02
 Coeff-Com:  0.219D-01-0.943D-02-0.172D+00-0.269D-01 0.119D+01
 Coeff:     -0.733D-06 0.223D-04 0.156D-03-0.280D-03-0.243D-02 0.148D-02
 Coeff:      0.219D-01-0.943D-02-0.172D+00-0.269D-01 0.119D+01
 Gap=     0.510 Goal=   None    Shift=    0.000
 RMSDP=9.67D-08 MaxDP=3.59D-06 DE=-4.38D-09 OVMax= 1.55D-05

 Cycle  12  Pass 1  IDiag  1:
 E= -337.982992196484     Delta-E=       -0.000000000613 Rises=F Damp=F
 DIIS: error= 2.21D-07 at cycle  12 NSaved=  12.
 NSaved=12 IEnMin=12 EnMin= -337.982992196484     IErMin=12 ErrMin= 2.21D-07
 ErrMax= 2.21D-07 EMaxC= 1.00D-01 BMatC= 1.29D-11 BMatP= 1.99D-10
 IDIUse=1 WtCom= 1.00D+00 WtEn= 0.00D+00
 Coeff-Com: -0.304D-05 0.240D-04 0.101D-03 0.940D-04-0.507D-03-0.154D-02
 Coeff-Com: -0.425D-03 0.166D-01 0.143D-01-0.123D+00-0.430D-01 0.114D+01
 Coeff:     -0.304D-05 0.240D-04 0.101D-03 0.940D-04-0.507D-03-0.154D-02
 Coeff:     -0.425D-03 0.166D-01 0.143D-01-0.123D+00-0.430D-01 0.114D+01
 Gap=     0.510 Goal=   None    Shift=    0.000
 RMSDP=2.26D-08 MaxDP=8.25D-07 DE=-6.13D-10 OVMax= 2.62D-06

 Cycle  13  Pass 1  IDiag  1:
 E= -337.982992196520     Delta-E=       -0.000000000036 Rises=F Damp=F
 DIIS: error= 5.92D-08 at cycle  13 NSaved=  13.
 NSaved=13 IEnMin=13 EnMin= -337.982992196520     IErMin=13 ErrMin= 5.92D-08
 ErrMax= 5.92D-08 EMaxC= 1.00D-01 BMatC= 9.16D-13 BMatP= 1.29D-11
 IDIUse=1 WtCom= 1.00D+00 WtEn= 0.00D+00
 Coeff-Com: -0.298D-06 0.104D-05-0.447D-06 0.211D-04 0.132D-03-0.209D-03
 Coeff-Com: -0.184D-02 0.210D-02 0.153D-01-0.125D-01-0.939D-01 0.109D+00
 Coeff-Com:  0.982D+00
 Coeff:     -0.298D-06 0.104D-05-0.447D-06 0.211D-04 0.132D-03-0.209D-03
 Coeff:     -0.184D-02 0.210D-02 0.153D-01-0.125D-01-0.939D-01 0.109D+00
 Coeff:      0.982D+00
 Gap=     0.510 Goal=   None    Shift=    0.000
 RMSDP=5.41D-09 MaxDP=1.88D-07 DE=-3.59D-11 OVMax= 5.56D-07

 SCF Done:  E(RHF) =  -337.982992197     A.U. after   13 cycles
             Convg  =    0.5408D-08             -V/T =  2.0017
 KE= 3.373990708533D+02 PE=-1.273496344021D+03 EE= 3.594066492525D+02
 Leave Link  502 at Fri Sep  6 17:05:48 2019, MaxMem= 4294967296 cpu:     408.4
 (Enter /opt/g09gh/gaussian/g09/l801.exe)
 ExpMin= 1.03D-01 ExpMax= 1.53D+04 ExpMxC= 5.22D+02 IAcc=1 IRadAn=         1 AccDes= 0.00D+00
 HarFok:  IExCor=  205 AccDes= 0.00D+00 IRadAn=         1 IDoV=-2
 ScaDFX=  1.000000  1.000000  1.000000  1.000000
 Largest valence mixing into a core orbital is  2.20D-04
 Largest core mixing into a valence orbital is  3.53D-05
 Range of M.O.s used for correlation:     7   264
 NBasis=   264 NAE=    24 NBE=    24 NFC=     6 NFV=     0
 NROrb=    258 NOA=    18 NOB=    18 NVA=   240 NVB=   240

 **** Warning!!: The largest alpha MO coefficient is  0.10584222D+02

 Leave Link  801 at Fri Sep  6 17:05:48 2019, MaxMem= 4294967296 cpu:       0.4
 (Enter /opt/g09gh/gaussian/g09/l906.exe)
 Frozen-core derivative calculation, NFC=   6 NFV=   0.
 FulOut=F Deriv=T AODrv=T NAtomX=    12
   MMem=         326  MDisk=          18 MDiskD=          18
  W3Min=     1900800 MinDsk=     2982350 NBas6D=         300
 NBas2D=       45780    NTT=       45150    LW2=     3500000
    MDV=  4294145844 MDiskM=       71535 NBas2p=       43655
 Fully direct method using O(ONN) memory.
 IMap=   1   2   3   4   5   6   7   8   9  10  11  12  13  14  15  16  17  18  19  20
 IMap=  21  22  23  24
 JobTyp=1 Pass  1:  I=   7 to  24 NPSUse=  8 ParTrn=T ParDer=T DoDerP=T.
 Spin components of T(2) and E(2):
     alpha-alpha T2 =       0.4491260729D-01 E2=     -0.1565149383D+00
     alpha-beta  T2 =       0.2469942086D+00 E2=     -0.9183186277D+00
     beta-beta   T2 =       0.4491260729D-01 E2=     -0.1565149383D+00
 The integrals were generated   1 times.
 ANorm=    0.1156209074D+01
 E2 =    -0.1231348504D+01 EUMP2 =    -0.33921434070092D+03
 Leave Link  906 at Fri Sep  6 17:07:11 2019, MaxMem= 4294967296 cpu:     663.2
 (Enter /opt/g09gh/gaussian/g09/l1002.exe)
 Minotr:  Closed shell wavefunction.
          Computing MP2/KS-MP2 derivatives.
          Using Z-Vector for PSCF gradient.
          Skipping F1 and S1 gradient terms here.
          IDoAtm=111111111111
          Frozen-core window.
          Direct CPHF calculation.
          Differentiating once with respect to electric field.
                with respect to dipole field.
          Differentiating once with respect to nuclear coordinates.
          Requested convergence is 1.0D-10 RMS, and 1.0D-09 maximum.
          NewPWx=F KeepS1=T KeepF1=T KeepIn=T MapXYZ=F SortEE=F KeepMc=T.
          MDV=    4294967172 using IRadAn=       0.
          Keep R1 ints in memory in canonical form, NReq=1021225618.
 Symmetry not used in FoFDir.
 MinBra= 0 MaxBra= 3 Meth= 1.
 IRaf=       0 NMat=   1 IRICut=       1 DoRegI=T DoRafI=F ISym2E= 0 JSym2E=0.
          Solving linear equations separately, MaxMat=       0.
          There are     1 degrees of freedom in the 1st order CPHF.  IDoFFX=0.
 LinEq1:  Iter=  0 NonCon=     1 RMS=4.07D-03 Max=1.52D-01
 AX will form     1 AO Fock derivatives at one time.
 LinEq1:  Iter=  1 NonCon=     1 RMS=1.03D-03 Max=1.40D-02
 LinEq1:  Iter=  2 NonCon=     1 RMS=3.68D-04 Max=7.65D-03
 LinEq1:  Iter=  3 NonCon=     1 RMS=1.39D-04 Max=3.11D-03
 LinEq1:  Iter=  4 NonCon=     1 RMS=4.60D-05 Max=7.42D-04
 LinEq1:  Iter=  5 NonCon=     1 RMS=1.62D-05 Max=4.13D-04
 LinEq1:  Iter=  6 NonCon=     1 RMS=5.72D-06 Max=1.25D-04
 LinEq1:  Iter=  7 NonCon=     1 RMS=1.70D-06 Max=5.77D-05
 LinEq1:  Iter=  8 NonCon=     1 RMS=5.87D-07 Max=2.00D-05
 LinEq1:  Iter=  9 NonCon=     1 RMS=1.78D-07 Max=4.44D-06
 LinEq1:  Iter= 10 NonCon=     1 RMS=5.57D-08 Max=8.42D-07
 LinEq1:  Iter= 11 NonCon=     1 RMS=1.74D-08 Max=2.69D-07
 LinEq1:  Iter= 12 NonCon=     1 RMS=5.25D-09 Max=8.65D-08
 LinEq1:  Iter= 13 NonCon=     1 RMS=2.03D-09 Max=6.02D-08
 LinEq1:  Iter= 14 NonCon=     1 RMS=7.79D-10 Max=1.65D-08
 LinEq1:  Iter= 15 NonCon=     1 RMS=2.49D-10 Max=5.30D-09
 LinEq1:  Iter= 16 NonCon=     0 RMS=4.46D-11 Max=5.75D-10
 Linear equations converged to 1.000D-10 1.000D-09 after    16 iterations.
 End of Minotr Frequency-dependent properties file   721 does not exist.
 End of Minotr Frequency-dependent properties file   722 does not exist.
 Leave Link 1002 at Fri Sep  6 17:08:03 2019, MaxMem= 4294967296 cpu:     416.9
 (Enter /opt/g09gh/gaussian/g09/l601.exe)
 Copying SCF densities to generalized density rwf, IOpCl= 0 IROHF=0.

 **********************************************************************

            Population analysis using the SCF density.

 **********************************************************************

 Alpha  occ. eigenvalues --  -20.55373 -20.52905 -15.57599 -15.55206 -11.36723
 Alpha  occ. eigenvalues --  -11.34830  -1.41833  -1.32989  -1.27060  -1.16418
 Alpha  occ. eigenvalues --   -0.87045  -0.81892  -0.76175  -0.72628  -0.67697
 Alpha  occ. eigenvalues --   -0.65405  -0.60671  -0.59086  -0.56807  -0.54245
 Alpha  occ. eigenvalues --   -0.46168  -0.45346  -0.41532  -0.38568
 Alpha virt. eigenvalues --    0.12415   0.16216   0.16381   0.19037   0.19310
 Alpha virt. eigenvalues --    0.19742   0.27778   0.29876   0.34214   0.36806
 Alpha virt. eigenvalues --    0.37402   0.40107   0.42549   0.46383   0.47604
 Alpha virt. eigenvalues --    0.49476   0.55464   0.56564   0.58352   0.59587
 Alpha virt. eigenvalues --    0.60725   0.63254   0.64402   0.67502   0.67695
 Alpha virt. eigenvalues --    0.70429   0.71463   0.73307   0.73726   0.75813
 Alpha virt. eigenvalues --    0.76972   0.78507   0.81175   0.84023   0.87699
 Alpha virt. eigenvalues --    0.88424   0.89977   0.91597   0.92085   0.94861
 Alpha virt. eigenvalues --    0.98910   1.00267   1.00911   1.04506   1.08008
 Alpha virt. eigenvalues --    1.09677   1.12133   1.13229   1.15842   1.18149
 Alpha virt. eigenvalues --    1.19925   1.21747   1.22140   1.24466   1.28912
 Alpha virt. eigenvalues --    1.30941   1.34118   1.39874   1.48321   1.51720
 Alpha virt. eigenvalues --    1.55772   1.57380   1.59630   1.61816   1.62490
 Alpha virt. eigenvalues --    1.65151   1.66105   1.73544   1.77843   1.78890
 Alpha virt. eigenvalues --    1.86028   1.86559   1.86791   1.90192   1.96932
 Alpha virt. eigenvalues --    2.01711   2.01739   2.04557   2.10600   2.14756
 Alpha virt. eigenvalues --    2.20558   2.21195   2.24441   2.30153   2.33842
 Alpha virt. eigenvalues --    2.37766   2.41353   2.44372   2.44498   2.52388
 Alpha virt. eigenvalues --    2.62913   2.66523   2.74811   2.79630   2.83326
 Alpha virt. eigenvalues --    2.86259   2.88825   2.89670   2.93301   2.95068
 Alpha virt. eigenvalues --    2.96931   2.97347   3.01044   3.13683   3.14844
 Alpha virt. eigenvalues --    3.21370   3.24997   3.25500   3.26041   3.26700
 Alpha virt. eigenvalues --    3.29647   3.29850   3.32698   3.33099   3.37294
 Alpha virt. eigenvalues --    3.38610   3.43496   3.43959   3.48892   3.49737
 Alpha virt. eigenvalues --    3.53101   3.54612   3.55595   3.58815   3.59595
 Alpha virt. eigenvalues --    3.63533   3.65181   3.66844   3.70345   3.72391
 Alpha virt. eigenvalues --    3.72529   3.77199   3.79757   3.81199   3.83839
 Alpha virt. eigenvalues --    3.85658   3.88483   3.94150   3.96292   3.98559
 Alpha virt. eigenvalues --    4.00338   4.01431   4.03817   4.03833   4.06439
 Alpha virt. eigenvalues --    4.11524   4.12954   4.12964   4.14160   4.15617
 Alpha virt. eigenvalues --    4.20905   4.26432   4.29047   4.32918   4.33398
 Alpha virt. eigenvalues --    4.36399   4.38361   4.39597   4.45822   4.47817
 Alpha virt. eigenvalues --    4.49054   4.53432   4.56454   4.59701   4.60275
 Alpha virt. eigenvalues --    4.66625   4.70481   4.76193   4.77556   4.84135
 Alpha virt. eigenvalues --    4.89822   4.95711   4.96626   4.97854   4.98881
 Alpha virt. eigenvalues --    5.08338   5.09417   5.13958   5.14694   5.22129
 Alpha virt. eigenvalues --    5.23810   5.24806   5.26411   5.31590   5.33346
 Alpha virt. eigenvalues --    5.34967   5.40146   5.48813   5.52605   5.58500
 Alpha virt. eigenvalues --    5.65038   5.67313   5.68456   5.72482   5.72839
 Alpha virt. eigenvalues --    5.79372   5.81780   5.83951   5.87868   5.91447
 Alpha virt. eigenvalues --    5.93581   5.98813   6.04752   6.08127   6.10032
 Alpha virt. eigenvalues --    6.18172   6.21993   6.24764   6.40236   6.48066
 Alpha virt. eigenvalues --    6.49744   6.57573   6.66112   6.66449   6.71808
 Alpha virt. eigenvalues --    6.85163   6.89854   6.90232   6.94004   7.05275
 Alpha virt. eigenvalues --    7.06670   7.12939   7.13581   7.31001   7.33164
 Alpha virt. eigenvalues --    7.38557   7.41363   7.43026   7.51304   7.65432
 Alpha virt. eigenvalues --    7.79471   7.86929   8.00767   8.17906  10.40013
 Alpha virt. eigenvalues --   10.62139  12.26598  13.77016  13.89335  14.93032
          Condensed to atoms (all electrons):
              1          2          3          4          5          6
     1  C    4.207937   0.417978   0.600210   0.468303  -0.025697   0.003233
     2  H    0.417978   0.601702  -0.059101  -0.062368   0.001970   0.000145
     3  O    0.600210  -0.059101   8.012620  -0.077251   0.000098   0.004590
     4  O    0.468303  -0.062368  -0.077251   7.897027   0.274571   0.002758
     5  H   -0.025697   0.001970   0.000098   0.274571   0.277578  -0.006348
     6  C    0.003233   0.000145   0.004590   0.002758  -0.006348   4.451819
     7  H   -0.000047  -0.000013  -0.000184  -0.000450   0.002693   0.432028
     8  N   -0.001864  -0.000901  -0.000608  -0.105417   0.196657   0.589894
     9  H    0.000147   0.000052   0.000110   0.004414  -0.012525  -0.029427
    10  N    0.000509  -0.000381  -0.058679   0.001043  -0.004513   0.474551
    11  H   -0.009619   0.000881   0.057670   0.000395   0.001678  -0.021190
    12  H    0.000029   0.000025   0.002556  -0.000025   0.000070  -0.027657
              7          8          9         10         11         12
     1  C   -0.000047  -0.001864   0.000147   0.000509  -0.009619   0.000029
     2  H   -0.000013  -0.000901   0.000052  -0.000381   0.000881   0.000025
     3  O   -0.000184  -0.000608   0.000110  -0.058679   0.057670   0.002556
     4  O   -0.000450  -0.105417   0.004414   0.001043   0.000395  -0.000025
     5  H    0.002693   0.196657  -0.012525  -0.004513   0.001678   0.000070
     6  C    0.432028   0.589894  -0.029427   0.474551  -0.021190  -0.027657
     7  H    0.564127  -0.038121  -0.015884  -0.060439   0.004616  -0.007574
     8  N   -0.038121   6.493329   0.345355  -0.085260  -0.002332   0.003221
     9  H   -0.015884   0.345355   0.534490   0.006292  -0.000021  -0.000348
    10  N   -0.060439  -0.085260   0.006292   6.281570   0.375242   0.387766
    11  H    0.004616  -0.002332  -0.000021   0.375242   0.353175  -0.029478
    12  H   -0.007574   0.003221  -0.000348   0.387766  -0.029478   0.488568
 Mulliken atomic charges:
              1
     1  C    0.338881
     2  H    0.100009
     3  O   -0.482030
     4  O   -0.402999
     5  H    0.293767
     6  C    0.125603
     7  H    0.119249
     8  N   -0.393952
     9  H    0.167343
    10  N   -0.317701
    11  H    0.268983
    12  H    0.182846
 Sum of Mulliken atomic charges =   0.00000
 Mulliken charges with hydrogens summed into heavy atoms:
              1
     1  C    0.438890
     3  O   -0.482030
     4  O   -0.109231
     6  C    0.244852
     8  N   -0.226609
    10  N    0.134129
 Sum of Mulliken charges with hydrogens summed into heavy atoms =   0.00000
          Condensed to fragments (all electrons):
     1      -0.152372
     2       0.152372
 Electronic spatial extent (au):  <R**2>=            656.1034
 Charge=              0.0000 electrons
 Dipole moment (field-independent basis, Debye):
    X=              3.8764    Y=              0.0964    Z=              0.0000  Tot=              3.8776
 Quadrupole moment (field-independent basis, Debye-Ang):
   XX=            -24.8231   YY=            -36.0421   ZZ=            -37.5449
   XY=              0.1206   XZ=              0.0000   YZ=              0.0000
 Traceless Quadrupole moment (field-independent basis, Debye-Ang):
   XX=              7.9802   YY=             -3.2387   ZZ=             -4.7415
   XY=              0.1206   XZ=              0.0000   YZ=              0.0000
 Octapole moment (field-independent basis, Debye-Ang**2):
  XXX=              8.3459  YYY=             -1.7622  ZZZ=              0.0000  XYY=             18.3367
  XXY=              5.2338  XXZ=              0.0000  XZZ=             -5.4235  YZZ=              0.3793
  YYZ=              0.0000  XYZ=              0.0000
 Hexadecapole moment (field-independent basis, Debye-Ang**3):
 XXXX=           -427.7522 YYYY=           -223.9593 ZZZZ=            -33.6775 XXXY=              1.8134
 XXXZ=              0.0000 YYYX=              5.2263 YYYZ=              0.0000 ZZZX=              0.0000
 ZZZY=              0.0000 XXYY=           -118.1233 XXZZ=            -97.7422 YYZZ=            -51.4770
 XXYZ=              0.0000 YYXZ=              0.0000 ZZXY=              0.2218
 N-N= 2.387076317184D+02 E-N=-1.273496341109D+03  KE= 3.373990708533D+02
 No NMR shielding tensors so no spin-rotation constants.
 Leave Link  601 at Fri Sep  6 17:08:04 2019, MaxMem= 4294967296 cpu:       1.5
 (Enter /opt/g09gh/gaussian/g09/l701.exe)
 Compute integral first derivatives.
 ... and contract with generalized density number  2.
 Leave Link  701 at Fri Sep  6 17:08:04 2019, MaxMem= 4294967296 cpu:       1.7
 (Enter /opt/g09gh/gaussian/g09/l702.exe)
 L702 exits ... SP integral derivatives will be done elsewhere.
 Leave Link  702 at Fri Sep  6 17:08:04 2019, MaxMem= 4294967296 cpu:       0.2
 (Enter /opt/g09gh/gaussian/g09/l703.exe)
 Compute integral first derivatives, UseDBF=F ICtDFT=           0.
 Integral derivatives from FoFDir, PRISM(SPDF).
 Calling FoFJK, ICntrl=      2127 FMM=F ISym2X=0 I1Cent= 0 IOpClX= 0 NMat=1 NMatS=1 NMatT=0.
 FoFCou: FMM=F IPFlag=           0 FMFlag=      100000 FMFlg1=         800
         NFxFlg=           0 DoJE=F BraDBF=F KetDBF=F FulRan=T
         Omega=  0.000000  0.000000  1.000000  0.000000  0.000000 ICntrl=    2127 IOpCl=  0
         NMat0=    1 NMatS0=    1 NMatT0=    0 NMatD0=    1 NMtDS0=    0 NMtDT0=    0
         I1Cent=           0 NGrid=           0.
 Symmetry not used in FoFCou.
 Leave Link  703 at Fri Sep  6 17:08:15 2019, MaxMem= 4294967296 cpu:      90.8
 (Enter /opt/g09gh/gaussian/g09/l716.exe)
 Dipole        = 1.50220277D+00 5.18128093D-02-2.15861342D-15
 Cartesian Forces:  Max     0.025030933 RMS     0.008351411
 Leave Link  716 at Fri Sep  6 17:08:15 2019, MaxMem= 4294967296 cpu:       0.3
 (Enter /opt/g09gh/gaussian/g09/l122.exe)
 Counterpoise: doing DCBS calculation for fragment   1 NewBq=T
 Leave Link  122 at Fri Sep  6 17:08:15 2019, MaxMem= 4294967296 cpu:       0.0
 (Enter /opt/g09gh/gaussian/g09/l301.exe)
 Basis read from rwf:  (5D, 7F)
 No pseudopotential information found on rwf file.
 Integral buffers will be    131072 words long.
 Raffenetti 1 integral format.
 Two-electron integral symmetry is turned off.
   264 basis functions,   414 primitive gaussians,   300 cartesian basis functions
    12 alpha electrons       12 beta electrons
       nuclear repulsion energy        69.0538729243 Hartrees.
 IExCor=    0 DFT=F Ex=HF Corr=None ExCW=0 ScaHFX=  1.000000
 ScaDFX=  1.000000  1.000000  1.000000  1.000000 ScalE2=  1.000000  1.000000
 IRadAn=      0 IRanWt=     -1 IRanGd=            0 ICorTp=0
 NAtoms=   12 NActive=   12 NUniq=   12 SFac= 7.50D-01 NAtFMM=   80 NAOKFM=F Big=F
 No density basis found on file   718.
 Leave Link  301 at Fri Sep  6 17:08:15 2019, MaxMem= 4294967296 cpu:       0.6
 (Enter /opt/g09gh/gaussian/g09/l302.exe)
 NPDir=0 NMtPBC=     1 NCelOv=     1 NCel=       1 NClECP=     1 NCelD=      1
         NCelK=      1 NCelE2=     1 NClLst=     1 CellRange=     0.0.
 One-electron integrals computed using PRISM.
 NBasis=   264 RedAO= T  NBF=   264
 NBsUse=   264 1.00D-06 NBFU=   264
 Leave Link  302 at Fri Sep  6 17:08:16 2019, MaxMem= 4294967296 cpu:       1.7
 (Enter /opt/g09gh/gaussian/g09/l303.exe)
 DipDrv:  MaxL=1.
 Leave Link  303 at Fri Sep  6 17:08:16 2019, MaxMem= 4294967296 cpu:       0.3
 (Enter /opt/g09gh/gaussian/g09/l401.exe)
 Harris functional with IExCor=  205 diagonalized for initial guess.
 ExpMin= 1.03D-01 ExpMax= 1.53D+04 ExpMxC= 5.22D+02 IAcc=1 IRadAn=         1 AccDes= 0.00D+00
 HarFok:  IExCor=  205 AccDes= 0.00D+00 IRadAn=         1 IDoV= 1
 ScaDFX=  1.000000  1.000000  1.000000  1.000000
 FoFCou: FMM=F IPFlag=           0 FMFlag=      100000 FMFlg1=           0
         NFxFlg=           0 DoJE=T BraDBF=F KetDBF=T FulRan=T
         Omega=  0.000000  0.000000  1.000000  0.000000  0.000000 ICntrl=     500 IOpCl=  0
         NMat0=    1 NMatS0=    1 NMatT0=    0 NMatD0=    1 NMtDS0=    0 NMtDT0=    0
         I1Cent=           4 NGrid=           0.
 Symmetry not used in FoFCou.
 Harris En= -188.949305202554    
 Leave Link  401 at Fri Sep  6 17:08:16 2019, MaxMem= 4294967296 cpu:       2.9
 (Enter /opt/g09gh/gaussian/g09/l502.exe)
 Closed shell SCF:
 Requested convergence on RMS density matrix=1.00D-08 within  64 cycles.
 Requested convergence on MAX density matrix=1.00D-06.
 Requested convergence on             energy=1.00D-06.
 No special actions if energy rises.
 Using DIIS extrapolation, IDIIS=  1040.
 Two-electron integral symmetry not used.
 Keep R1 ints in memory in canonical form, NReq=1033198901.
 IEnd=      279762 IEndB=      279762 NGot=  4294967296 MDV=  3275498206
 LenX=  3275498206 LenY=  3275407765
 Symmetry not used in FoFDir.
 MinBra= 0 MaxBra= 3 Meth= 1.
 IRaf=       0 NMat=   1 IRICut=       1 DoRegI=T DoRafI=F ISym2E= 0 JSym2E=0.

 Cycle   1  Pass 1  IDiag  1:
 E= -188.688457517118    
 DIIS: error= 3.60D-02 at cycle   1 NSaved=   1.
 NSaved= 1 IEnMin= 1 EnMin= -188.688457517118     IErMin= 1 ErrMin= 3.60D-02
 ErrMax= 3.60D-02 EMaxC= 1.00D-01 BMatC= 3.44D-01 BMatP= 3.44D-01
 IDIUse=3 WtCom= 6.40D-01 WtEn= 3.60D-01
 Coeff-Com:  0.100D+01
 Coeff-En:   0.100D+01
 Coeff:      0.100D+01
 Gap=     0.562 Goal=   None    Shift=    0.000
 GapD=    0.562 DampG=2.000 DampE=0.500 DampFc=1.0000 IDamp=-1.
 RMSDP=1.10D-03 MaxDP=4.70D-02              OVMax= 1.43D-01

 Cycle   2  Pass 1  IDiag  1:
 E= -188.776458764407     Delta-E=       -0.088001247288 Rises=F Damp=F
 DIIS: error= 1.62D-02 at cycle   2 NSaved=   2.
 NSaved= 2 IEnMin= 2 EnMin= -188.776458764407     IErMin= 2 ErrMin= 1.62D-02
 ErrMax= 1.62D-02 EMaxC= 1.00D-01 BMatC= 6.24D-02 BMatP= 3.44D-01
 IDIUse=3 WtCom= 8.38D-01 WtEn= 1.62D-01
 Coeff-Com:  0.235D+00 0.765D+00
 Coeff-En:   0.000D+00 0.100D+01
 Coeff:      0.197D+00 0.803D+00
 Gap=     0.566 Goal=   None    Shift=    0.000
 RMSDP=6.21D-04 MaxDP=2.85D-02 DE=-8.80D-02 OVMax= 6.60D-02

 Cycle   3  Pass 1  IDiag  1:
 E= -188.809033486629     Delta-E=       -0.032574722222 Rises=F Damp=F
 DIIS: error= 9.67D-03 at cycle   3 NSaved=   3.
 NSaved= 3 IEnMin= 3 EnMin= -188.809033486629     IErMin= 3 ErrMin= 9.67D-03
 ErrMax= 9.67D-03 EMaxC= 1.00D-01 BMatC= 1.16D-02 BMatP= 6.24D-02
 IDIUse=3 WtCom= 9.03D-01 WtEn= 9.67D-02
 Coeff-Com: -0.239D-01 0.280D+00 0.744D+00
 Coeff-En:   0.000D+00 0.000D+00 0.100D+01
 Coeff:     -0.216D-01 0.253D+00 0.769D+00
 Gap=     0.524 Goal=   None    Shift=    0.000
 RMSDP=1.80D-04 MaxDP=1.02D-02 DE=-3.26D-02 OVMax= 3.42D-02

 Cycle   4  Pass 1  IDiag  1:
 E= -188.816190618695     Delta-E=       -0.007157132066 Rises=F Damp=F
 DIIS: error= 1.16D-03 at cycle   4 NSaved=   4.
 NSaved= 4 IEnMin= 4 EnMin= -188.816190618695     IErMin= 4 ErrMin= 1.16D-03
 ErrMax= 1.16D-03 EMaxC= 1.00D-01 BMatC= 4.09D-04 BMatP= 1.16D-02
 IDIUse=3 WtCom= 9.88D-01 WtEn= 1.16D-02
 Coeff-Com: -0.128D-01 0.590D-01 0.251D+00 0.703D+00
 Coeff-En:   0.000D+00 0.000D+00 0.000D+00 0.100D+01
 Coeff:     -0.127D-01 0.584D-01 0.248D+00 0.706D+00
 Gap=     0.524 Goal=   None    Shift=    0.000
 RMSDP=4.25D-05 MaxDP=1.69D-03 DE=-7.16D-03 OVMax= 5.06D-03

 Cycle   5  Pass 1  IDiag  1:
 E= -188.816528242138     Delta-E=       -0.000337623443 Rises=F Damp=F
 DIIS: error= 7.40D-04 at cycle   5 NSaved=   5.
 NSaved= 5 IEnMin= 5 EnMin= -188.816528242138     IErMin= 5 ErrMin= 7.40D-04
 ErrMax= 7.40D-04 EMaxC= 1.00D-01 BMatC= 2.71D-05 BMatP= 4.09D-04
 IDIUse=3 WtCom= 9.93D-01 WtEn= 7.40D-03
 Coeff-Com:  0.282D-02-0.299D-01-0.871D-01 0.695D-02 0.111D+01
 Coeff-En:   0.000D+00 0.000D+00 0.000D+00 0.000D+00 0.100D+01
 Coeff:      0.280D-02-0.297D-01-0.864D-01 0.690D-02 0.111D+01
 Gap=     0.525 Goal=   None    Shift=    0.000
 RMSDP=2.39D-05 MaxDP=1.07D-03 DE=-3.38D-04 OVMax= 4.16D-03

 Cycle   6  Pass 1  IDiag  1:
 E= -188.816590239083     Delta-E=       -0.000061996945 Rises=F Damp=F
 DIIS: error= 1.53D-04 at cycle   6 NSaved=   6.
 NSaved= 6 IEnMin= 6 EnMin= -188.816590239083     IErMin= 6 ErrMin= 1.53D-04
 ErrMax= 1.53D-04 EMaxC= 1.00D-01 BMatC= 5.24D-06 BMatP= 2.71D-05
 IDIUse=3 WtCom= 9.98D-01 WtEn= 1.53D-03
 Coeff-Com:  0.212D-02-0.142D-01-0.487D-01-0.111D+00 0.198D+00 0.973D+00
 Coeff-En:   0.000D+00 0.000D+00 0.000D+00 0.000D+00 0.000D+00 0.100D+01
 Coeff:      0.212D-02-0.141D-01-0.486D-01-0.111D+00 0.198D+00 0.974D+00
 Gap=     0.526 Goal=   None    Shift=    0.000
 RMSDP=1.11D-05 MaxDP=3.51D-04 DE=-6.20D-05 OVMax= 1.61D-03

 Cycle   7  Pass 1  IDiag  1:
 E= -188.816601729720     Delta-E=       -0.000011490637 Rises=F Damp=F
 DIIS: error= 7.20D-05 at cycle   7 NSaved=   7.
 NSaved= 7 IEnMin= 7 EnMin= -188.816601729720     IErMin= 7 ErrMin= 7.20D-05
 ErrMax= 7.20D-05 EMaxC= 1.00D-01 BMatC= 6.83D-07 BMatP= 5.24D-06
 IDIUse=1 WtCom= 1.00D+00 WtEn= 0.00D+00
 Coeff-Com: -0.575D-03 0.549D-02 0.208D-01 0.390D-02-0.169D+00-0.122D+00
 Coeff-Com:  0.126D+01
 Coeff:     -0.575D-03 0.549D-02 0.208D-01 0.390D-02-0.169D+00-0.122D+00
 Coeff:      0.126D+01
 Gap=     0.527 Goal=   None    Shift=    0.000
 RMSDP=4.93D-06 MaxDP=1.98D-04 DE=-1.15D-05 OVMax= 9.14D-04

 Cycle   8  Pass 1  IDiag  1:
 E= -188.816603705158     Delta-E=       -0.000001975438 Rises=F Damp=F
 DIIS: error= 2.29D-05 at cycle   8 NSaved=   8.
 NSaved= 8 IEnMin= 8 EnMin= -188.816603705158     IErMin= 8 ErrMin= 2.29D-05
 ErrMax= 2.29D-05 EMaxC= 1.00D-01 BMatC= 5.56D-08 BMatP= 6.83D-07
 IDIUse=1 WtCom= 1.00D+00 WtEn= 0.00D+00
 Coeff-Com: -0.644D-04 0.457D-04-0.238D-03 0.513D-02 0.238D-01-0.341D-01
 Coeff-Com: -0.387D+00 0.139D+01
 Coeff:     -0.644D-04 0.457D-04-0.238D-03 0.513D-02 0.238D-01-0.341D-01
 Coeff:     -0.387D+00 0.139D+01
 Gap=     0.527 Goal=   None    Shift=    0.000
 RMSDP=1.72D-06 MaxDP=7.59D-05 DE=-1.98D-06 OVMax= 3.56D-04

 Cycle   9  Pass 1  IDiag  1:
 E= -188.816603915147     Delta-E=       -0.000000209990 Rises=F Damp=F
 DIIS: error= 6.18D-06 at cycle   9 NSaved=   9.
 NSaved= 9 IEnMin= 9 EnMin= -188.816603915147     IErMin= 9 ErrMin= 6.18D-06
 ErrMax= 6.18D-06 EMaxC= 1.00D-01 BMatC= 5.53D-09 BMatP= 5.56D-08
 IDIUse=1 WtCom= 1.00D+00 WtEn= 0.00D+00
 Coeff-Com:  0.677D-04-0.538D-03-0.165D-02-0.315D-02 0.106D-01 0.236D-01
 Coeff-Com: -0.784D-02-0.407D+00 0.139D+01
 Coeff:      0.677D-04-0.538D-03-0.165D-02-0.315D-02 0.106D-01 0.236D-01
 Coeff:     -0.784D-02-0.407D+00 0.139D+01
 Gap=     0.527 Goal=   None    Shift=    0.000
 RMSDP=4.69D-07 MaxDP=2.31D-05 DE=-2.10D-07 OVMax= 8.68D-05

 Cycle  10  Pass 1  IDiag  1:
 E= -188.816603931345     Delta-E=       -0.000000016198 Rises=F Damp=F
 DIIS: error= 1.75D-06 at cycle  10 NSaved=  10.
 NSaved=10 IEnMin=10 EnMin= -188.816603931345     IErMin=10 ErrMin= 1.75D-06
 ErrMax= 1.75D-06 EMaxC= 1.00D-01 BMatC= 3.32D-10 BMatP= 5.53D-09
 IDIUse=1 WtCom= 1.00D+00 WtEn= 0.00D+00
 Coeff-Com: -0.325D-05 0.561D-04 0.312D-03-0.267D-03-0.377D-02-0.408D-03
 Coeff-Com:  0.396D-01-0.746D-01-0.170D+00 0.121D+01
 Coeff:     -0.325D-05 0.561D-04 0.312D-03-0.267D-03-0.377D-02-0.408D-03
 Coeff:      0.396D-01-0.746D-01-0.170D+00 0.121D+01
 Gap=     0.527 Goal=   None    Shift=    0.000
 RMSDP=1.00D-07 MaxDP=4.66D-06 DE=-1.62D-08 OVMax= 1.51D-05

 Cycle  11  Pass 1  IDiag  1:
 E= -188.816603932081     Delta-E=       -0.000000000736 Rises=F Damp=F
 DIIS: error= 2.89D-07 at cycle  11 NSaved=  11.
 NSaved=11 IEnMin=11 EnMin= -188.816603932081     IErMin=11 ErrMin= 2.89D-07
 ErrMax= 2.89D-07 EMaxC= 1.00D-01 BMatC= 9.92D-12 BMatP= 3.32D-10
 IDIUse=1 WtCom= 1.00D+00 WtEn= 0.00D+00
 Coeff-Com: -0.224D-05 0.148D-04 0.109D-04 0.177D-03 0.183D-03-0.352D-03
 Coeff-Com: -0.896D-02 0.346D-01-0.225D-01-0.281D+00 0.128D+01
 Coeff:     -0.224D-05 0.148D-04 0.109D-04 0.177D-03 0.183D-03-0.352D-03
 Coeff:     -0.896D-02 0.346D-01-0.225D-01-0.281D+00 0.128D+01
 Gap=     0.527 Goal=   None    Shift=    0.000
 RMSDP=1.87D-08 MaxDP=7.76D-07 DE=-7.36D-10 OVMax= 2.35D-06

 Cycle  12  Pass 1  IDiag  1:
 E= -188.816603932108     Delta-E=       -0.000000000027 Rises=F Damp=F
 DIIS: error= 4.21D-08 at cycle  12 NSaved=  12.
 NSaved=12 IEnMin=12 EnMin= -188.816603932108     IErMin=12 ErrMin= 4.21D-08
 ErrMax= 4.21D-08 EMaxC= 1.00D-01 BMatC= 4.11D-13 BMatP= 9.92D-12
 IDIUse=1 WtCom= 1.00D+00 WtEn= 0.00D+00
 Coeff-Com:  0.555D-06-0.483D-05-0.985D-05-0.497D-04 0.695D-04 0.154D-03
 Coeff-Com:  0.102D-02-0.664D-02 0.111D-01 0.334D-01-0.343D+00 0.130D+01
 Coeff:      0.555D-06-0.483D-05-0.985D-05-0.497D-04 0.695D-04 0.154D-03
 Coeff:      0.102D-02-0.664D-02 0.111D-01 0.334D-01-0.343D+00 0.130D+01
 Gap=     0.527 Goal=   None    Shift=    0.000
 RMSDP=3.72D-09 MaxDP=1.14D-07 DE=-2.66D-11 OVMax= 3.78D-07

 SCF Done:  E(RHF) =  -188.816603932     A.U. after   12 cycles
             Convg  =    0.3716D-08             -V/T =  2.0030
 KE= 1.882471997066D+02 PE=-5.841949143100D+02 EE= 1.380772377469D+02
 Leave Link  502 at Fri Sep  6 17:08:59 2019, MaxMem= 4294967296 cpu:     342.7
 (Enter /opt/g09gh/gaussian/g09/l801.exe)
 ExpMin= 1.03D-01 ExpMax= 1.53D+04 ExpMxC= 5.22D+02 IAcc=1 IRadAn=         1 AccDes= 0.00D+00
 HarFok:  IExCor=  205 AccDes= 0.00D+00 IRadAn=         1 IDoV=-2
 ScaDFX=  1.000000  1.000000  1.000000  1.000000
 Largest valence mixing into a core orbital is  2.19D-04
 Largest core mixing into a valence orbital is  2.68D-05
 Range of M.O.s used for correlation:     4   264
 NBasis=   264 NAE=    12 NBE=    12 NFC=     3 NFV=     0
 NROrb=    261 NOA=     9 NOB=     9 NVA=   252 NVB=   252
 Leave Link  801 at Fri Sep  6 17:08:59 2019, MaxMem= 4294967296 cpu:       0.3
 (Enter /opt/g09gh/gaussian/g09/l906.exe)
 Frozen-core derivative calculation, NFC=   3 NFV=   0.
 FulOut=F Deriv=T AODrv=T NAtomX=    12
   MMem=         326  MDisk=           9 MDiskD=           9
  W3Min=      950400 MinDsk=     1898750 NBas6D=         300
 NBas2D=       45780    NTT=       45150    LW2=     3500000
    MDV=  4294143084 MDiskM=       71535 NBas2p=       43655
 Fully direct method using O(ONN) memory.
 IMap=   1   2   3   4   5   6   7   8   9  10  11  12
 JobTyp=1 Pass  1:  I=   4 to  12 NPSUse=  8 ParTrn=T ParDer=T DoDerP=T.
 Spin components of T(2) and E(2):
     alpha-alpha T2 =       0.2241918887D-01 E2=     -0.8207270730D-01
     alpha-beta  T2 =       0.1230535535D+00 E2=     -0.4754644262D+00
     beta-beta   T2 =       0.2241918887D-01 E2=     -0.8207270730D-01
 The integrals were generated   1 times.
 ANorm=    0.1080690488D+01
 E2 =    -0.6396098408D+00 EUMP2 =    -0.18945621377289D+03
 Leave Link  906 at Fri Sep  6 17:09:58 2019, MaxMem= 4294967296 cpu:     467.9
 (Enter /opt/g09gh/gaussian/g09/l1002.exe)
 Minotr:  Closed shell wavefunction.
          Computing MP2/KS-MP2 derivatives.
          Using Z-Vector for PSCF gradient.
          Skipping F1 and S1 gradient terms here.
          IDoAtm=111111111111
          Frozen-core window.
          Direct CPHF calculation.
          Differentiating once with respect to electric field.
                with respect to dipole field.
          Differentiating once with respect to nuclear coordinates.
          Requested convergence is 1.0D-10 RMS, and 1.0D-09 maximum.
          NewPWx=F KeepS1=T KeepF1=T KeepIn=T MapXYZ=F SortEE=F KeepMc=T.
          MDV=    4294967172 using IRadAn=       0.
          Keep R1 ints in memory in canonical form, NReq=1021225618.
 Symmetry not used in FoFDir.
 MinBra= 0 MaxBra= 3 Meth= 1.
 IRaf=       0 NMat=   1 IRICut=       1 DoRegI=T DoRafI=F ISym2E= 0 JSym2E=0.
          Solving linear equations separately, MaxMat=       0.
          There are     1 degrees of freedom in the 1st order CPHF.  IDoFFX=0.
 LinEq1:  Iter=  0 NonCon=     1 RMS=4.32D-03 Max=1.42D-01
 AX will form     1 AO Fock derivatives at one time.
 LinEq1:  Iter=  1 NonCon=     1 RMS=1.13D-03 Max=2.20D-02
 LinEq1:  Iter=  2 NonCon=     1 RMS=4.45D-04 Max=6.12D-03
 LinEq1:  Iter=  3 NonCon=     1 RMS=2.00D-04 Max=3.43D-03
 LinEq1:  Iter=  4 NonCon=     1 RMS=4.82D-05 Max=7.58D-04
 LinEq1:  Iter=  5 NonCon=     1 RMS=1.76D-05 Max=3.12D-04
 LinEq1:  Iter=  6 NonCon=     1 RMS=5.94D-06 Max=1.33D-04
 LinEq1:  Iter=  7 NonCon=     1 RMS=1.29D-06 Max=3.20D-05
 LinEq1:  Iter=  8 NonCon=     1 RMS=2.54D-07 Max=3.62D-06
 LinEq1:  Iter=  9 NonCon=     1 RMS=4.32D-08 Max=4.63D-07
 LinEq1:  Iter= 10 NonCon=     1 RMS=8.92D-09 Max=1.05D-07
 LinEq1:  Iter= 11 NonCon=     1 RMS=1.59D-09 Max=1.86D-08
 LinEq1:  Iter= 12 NonCon=     1 RMS=2.10D-10 Max=2.49D-09
 LinEq1:  Iter= 13 NonCon=     0 RMS=3.19D-11 Max=3.82D-10
 Linear equations converged to 1.000D-10 1.000D-09 after    13 iterations.
 End of Minotr Frequency-dependent properties file   721 does not exist.
 End of Minotr Frequency-dependent properties file   722 does not exist.
 Leave Link 1002 at Fri Sep  6 17:10:42 2019, MaxMem= 4294967296 cpu:     355.3
 (Enter /opt/g09gh/gaussian/g09/l601.exe)
 Copying SCF densities to generalized density rwf, IOpCl= 0 IROHF=0.

 **********************************************************************

            Population analysis using the SCF density.

 **********************************************************************

 Alpha  occ. eigenvalues --  -20.65047 -20.55361 -11.39589  -1.47091  -1.35486
 Alpha  occ. eigenvalues --   -0.88278  -0.72528  -0.69930  -0.64356  -0.57828
 Alpha  occ. eigenvalues --   -0.48201  -0.45967
 Alpha virt. eigenvalues --    0.06702   0.12866   0.16326   0.16730   0.17566
 Alpha virt. eigenvalues --    0.21424   0.25575   0.25948   0.29980   0.33908
 Alpha virt. eigenvalues --    0.35198   0.37972   0.39442   0.41156   0.43658
 Alpha virt. eigenvalues --    0.45006   0.51985   0.52763   0.52831   0.56963
 Alpha virt. eigenvalues --    0.57834   0.60944   0.63378   0.67769   0.69760
 Alpha virt. eigenvalues --    0.72514   0.75624   0.75994   0.79021   0.81258
 Alpha virt. eigenvalues --    0.83158   0.87598   0.89816   0.90950   0.92045
 Alpha virt. eigenvalues --    0.95454   0.96984   0.98853   1.05045   1.06034
 Alpha virt. eigenvalues --    1.06938   1.08083   1.11761   1.12208   1.15104
 Alpha virt. eigenvalues --    1.16928   1.19312   1.22613   1.23963   1.24514
 Alpha virt. eigenvalues --    1.25241   1.28369   1.29219   1.34569   1.35271
 Alpha virt. eigenvalues --    1.37793   1.38890   1.40342   1.43853   1.45861
 Alpha virt. eigenvalues --    1.49471   1.50481   1.54431   1.60227   1.64005
 Alpha virt. eigenvalues --    1.67687   1.71406   1.72826   1.76629   1.82996
 Alpha virt. eigenvalues --    1.86374   1.90865   1.93580   1.96887   1.98048
 Alpha virt. eigenvalues --    2.01213   2.06162   2.09828   2.15053   2.17690
 Alpha virt. eigenvalues --    2.20350   2.24315   2.27249   2.31134   2.35433
 Alpha virt. eigenvalues --    2.41795   2.41917   2.43070   2.43772   2.48780
 Alpha virt. eigenvalues --    2.51822   2.56151   2.62198   2.65816   2.76167
 Alpha virt. eigenvalues --    2.78082   2.82688   2.83716   2.90255   2.91713
 Alpha virt. eigenvalues --    2.96050   2.96948   3.02298   3.08521   3.15495
 Alpha virt. eigenvalues --    3.21511   3.25522   3.30602   3.32460   3.41114
 Alpha virt. eigenvalues --    3.49667   3.51126   3.54813   3.58190   3.60343
 Alpha virt. eigenvalues --    3.63107   3.64492   3.65463   3.67561   3.73468
 Alpha virt. eigenvalues --    3.77940   3.79434   3.80616   3.86094   3.86787
 Alpha virt. eigenvalues --    3.89809   3.90796   3.93653   3.99201   3.99376
 Alpha virt. eigenvalues --    4.01085   4.07177   4.07632   4.11812   4.15983
 Alpha virt. eigenvalues --    4.18090   4.20411   4.22055   4.24630   4.28952
 Alpha virt. eigenvalues --    4.30917   4.32814   4.36370   4.38410   4.44134
 Alpha virt. eigenvalues --    4.44584   4.47772   4.48292   4.50115   4.52827
 Alpha virt. eigenvalues --    4.54830   4.57610   4.57922   4.59927   4.61978
 Alpha virt. eigenvalues --    4.62824   4.66016   4.68719   4.73328   4.73821
 Alpha virt. eigenvalues --    4.79431   4.80425   4.80441   4.83109   4.87705
 Alpha virt. eigenvalues --    4.93925   4.95579   5.01527   5.02213   5.02448
 Alpha virt. eigenvalues --    5.08255   5.18445   5.18893   5.34884   5.37974
 Alpha virt. eigenvalues --    5.39111   5.54374   5.60411   5.62266   5.62334
 Alpha virt. eigenvalues --    5.64689   5.66716   5.71765   5.71858   5.77915
 Alpha virt. eigenvalues --    5.80480   5.82922   5.87160   5.88753   5.94846
 Alpha virt. eigenvalues --    5.98987   5.99525   6.13220   6.17549   6.23056
 Alpha virt. eigenvalues --    6.28778   6.28799   6.34498   6.44292   6.47009
 Alpha virt. eigenvalues --    6.52991   6.54554   6.57013   6.57985   6.67455
 Alpha virt. eigenvalues --    6.70013   6.72305   6.79944   6.85940   6.88323
 Alpha virt. eigenvalues --    6.98164   7.00819   7.06030   7.10959   7.11545
 Alpha virt. eigenvalues --    7.15933   7.20226   7.21036   7.24154   7.26303
 Alpha virt. eigenvalues --    7.29637   7.35626   7.36838   7.45651   7.48266
 Alpha virt. eigenvalues --    7.52276   7.61986   7.70069   7.82729   7.89788
 Alpha virt. eigenvalues --    7.93746   8.01470   8.11666   8.28776   8.33028
 Alpha virt. eigenvalues --    8.78563   8.86937   8.90474   9.07856   9.09323
 Alpha virt. eigenvalues --    9.96053  10.37723  10.38685  10.54392  10.85219
 Alpha virt. eigenvalues --   11.28242  11.34406  12.24170  13.81919  39.56127
 Alpha virt. eigenvalues --   51.03729  53.36576
          Condensed to atoms (all electrons):
              1          2          3          4          5          6
     1  C    4.255510   0.416153   0.656321   0.396116  -0.028489   0.002014
     2  H    0.416153   0.562109  -0.051399  -0.056981   0.004993   0.000325
     3  O    0.656321  -0.051399   7.824596  -0.073176  -0.001214   0.007184
     4  O    0.396116  -0.056981  -0.073176   7.719397   0.325040   0.002507
     5  H   -0.028489   0.004993  -0.001214   0.325040   0.375473   0.007229
     6  C    0.002014   0.000325   0.007184   0.002507   0.007229   0.009187
     7  H    0.000016   0.000005   0.000201   0.000076   0.000265   0.000491
     8  N   -0.000124   0.000051  -0.001138  -0.002333  -0.001233  -0.003254
     9  H    0.000000   0.000007   0.000067   0.000111   0.000455   0.000207
    10  N    0.000540  -0.000105  -0.007762  -0.000854  -0.001044  -0.002592
    11  H   -0.007857   0.001569   0.039396  -0.000720   0.001587   0.000263
    12  H    0.000002  -0.000001  -0.000010  -0.000008  -0.000007   0.000037
              7          8          9         10         11         12
     1  C    0.000016  -0.000124   0.000000   0.000540  -0.007857   0.000002
     2  H    0.000005   0.000051   0.000007  -0.000105   0.001569  -0.000001
     3  O    0.000201  -0.001138   0.000067  -0.007762   0.039396  -0.000010
     4  O    0.000076  -0.002333   0.000111  -0.000854  -0.000720  -0.000008
     5  H    0.000265  -0.001233   0.000455  -0.001044   0.001587  -0.000007
     6  C    0.000491  -0.003254   0.000207  -0.002592   0.000263   0.000037
     7  H    0.001038  -0.000810   0.000063  -0.000524   0.000170   0.000014
     8  N   -0.000810   0.003178  -0.000342   0.000753  -0.000293   0.000004
     9  H    0.000063  -0.000342   0.000124  -0.000024   0.000018   0.000001
    10  N   -0.000524   0.000753  -0.000024   0.003798  -0.003420  -0.000485
    11  H    0.000170  -0.000293   0.000018  -0.003420   0.008593   0.000280
    12  H    0.000014   0.000004   0.000001  -0.000485   0.000280   0.000327
 Mulliken atomic charges:
              1
     1  C    0.309798
     2  H    0.123273
     3  O   -0.393067
     4  O   -0.309177
     5  H    0.316945
     6  C   -0.023598
     7  H   -0.001006
     8  N    0.005540
     9  H   -0.000687
    10  N    0.011719
    11  H   -0.039586
    12  H   -0.000154
 Sum of Mulliken atomic charges =   0.00000
 Mulliken charges with hydrogens summed into heavy atoms:
              1
     1  C    0.433071
     3  O   -0.393067
     4  O    0.007769
     6  C   -0.024604
     8  N    0.004853
    10  N   -0.028021
 Sum of Mulliken charges with hydrogens summed into heavy atoms =   0.00000
          Condensed to fragments (all electrons):
     1       0.047773
     2      -0.047773
 Electronic spatial extent (au):  <R**2>=            306.8037
 Charge=              0.0000 electrons
 Dipole moment (field-independent basis, Debye):
    X=             -0.0900    Y=             -2.4709    Z=              0.0000  Tot=              2.4725
 Quadrupole moment (field-independent basis, Debye-Ang):
   XX=            -13.2802   YY=            -21.2290   ZZ=            -17.0475
   XY=             -0.5173   XZ=              0.0000   YZ=              0.0000
 Traceless Quadrupole moment (field-independent basis, Debye-Ang):
   XX=              3.9053   YY=             -4.0434   ZZ=              0.1381
   XY=             -0.5173   XZ=              0.0000   YZ=              0.0000
 Octapole moment (field-independent basis, Debye-Ang**2):
  XXX=             58.3488  YYY=             -8.1798  ZZZ=              0.0000  XYY=             32.7752
  XXY=              1.6083  XXZ=              0.0000  XZZ=             24.2417  YZZ=             -1.0673
  YYZ=              0.0000  XYZ=              0.0000
 Hexadecapole moment (field-independent basis, Debye-Ang**3):
 XXXX=           -196.2797 YYYY=           -113.9907 ZZZZ=            -13.8662 XXXY=             -4.7327
 XXXZ=              0.0000 YYYX=              3.9740 YYYZ=              0.0000 ZZZX=              0.0000
 ZZZY=              0.0000 XXYY=            -70.1590 XXZZ=            -42.5691 YYZZ=            -20.9296
 XXYZ=              0.0000 YYXZ=              0.0000 ZZXY=              0.6954
 N-N= 6.905387292435D+01 E-N=-5.841949137608D+02  KE= 1.882471997066D+02
 No NMR shielding tensors so no spin-rotation constants.
 Leave Link  601 at Fri Sep  6 17:10:43 2019, MaxMem= 4294967296 cpu:       1.4
 (Enter /opt/g09gh/gaussian/g09/l701.exe)
 Compute integral first derivatives.
 ... and contract with generalized density number  2.
 Leave Link  701 at Fri Sep  6 17:10:43 2019, MaxMem= 4294967296 cpu:       1.7
 (Enter /opt/g09gh/gaussian/g09/l702.exe)
 L702 exits ... SP integral derivatives will be done elsewhere.
 Leave Link  702 at Fri Sep  6 17:10:43 2019, MaxMem= 4294967296 cpu:       0.2
 (Enter /opt/g09gh/gaussian/g09/l703.exe)
 Compute integral first derivatives, UseDBF=F ICtDFT=           0.
 Integral derivatives from FoFDir, PRISM(SPDF).
 Calling FoFJK, ICntrl=      2127 FMM=F ISym2X=0 I1Cent= 0 IOpClX= 0 NMat=1 NMatS=1 NMatT=0.
 FoFCou: FMM=F IPFlag=           0 FMFlag=      100000 FMFlg1=         800
         NFxFlg=           0 DoJE=F BraDBF=F KetDBF=F FulRan=T
         Omega=  0.000000  0.000000  1.000000  0.000000  0.000000 ICntrl=    2127 IOpCl=  0
         NMat0=    1 NMatS0=    1 NMatT0=    0 NMatD0=    1 NMtDS0=    0 NMtDT0=    0
         I1Cent=           0 NGrid=           0.
 Symmetry not used in FoFCou.
 Leave Link  703 at Fri Sep  6 17:10:53 2019, MaxMem= 4294967296 cpu:      85.0
 (Enter /opt/g09gh/gaussian/g09/l716.exe)
 Dipole        = 3.16615315D-02-8.37311591D-01-1.72247197D-15
 Cartesian Forces:  Max     0.088838488 RMS     0.026295270
 Leave Link  716 at Fri Sep  6 17:10:54 2019, MaxMem= 4294967296 cpu:       0.4
 (Enter /opt/g09gh/gaussian/g09/l122.exe)
 Counterpoise: doing DCBS calculation for fragment   2 NewBq=T
 Leave Link  122 at Fri Sep  6 17:10:54 2019, MaxMem= 4294967296 cpu:       0.0
 (Enter /opt/g09gh/gaussian/g09/l301.exe)
 Basis read from rwf:  (5D, 7F)
 No pseudopotential information found on rwf file.
 Integral buffers will be    131072 words long.
 Raffenetti 1 integral format.
 Two-electron integral symmetry is turned off.
   264 basis functions,   414 primitive gaussians,   300 cartesian basis functions
    12 alpha electrons       12 beta electrons
       nuclear repulsion energy        71.4944227030 Hartrees.
 IExCor=    0 DFT=F Ex=HF Corr=None ExCW=0 ScaHFX=  1.000000
 ScaDFX=  1.000000  1.000000  1.000000  1.000000 ScalE2=  1.000000  1.000000
 IRadAn=      0 IRanWt=     -1 IRanGd=            0 ICorTp=0
 NAtoms=   12 NActive=   12 NUniq=   12 SFac= 7.50D-01 NAtFMM=   80 NAOKFM=F Big=F
 No density basis found on file   718.
 Leave Link  301 at Fri Sep  6 17:10:54 2019, MaxMem= 4294967296 cpu:       0.6
 (Enter /opt/g09gh/gaussian/g09/l302.exe)
 NPDir=0 NMtPBC=     1 NCelOv=     1 NCel=       1 NClECP=     1 NCelD=      1
         NCelK=      1 NCelE2=     1 NClLst=     1 CellRange=     0.0.
 One-electron integrals computed using PRISM.
 NBasis=   264 RedAO= T  NBF=   264
 NBsUse=   264 1.00D-06 NBFU=   264
 Leave Link  302 at Fri Sep  6 17:10:54 2019, MaxMem= 4294967296 cpu:       1.8
 (Enter /opt/g09gh/gaussian/g09/l303.exe)
 DipDrv:  MaxL=1.
 Leave Link  303 at Fri Sep  6 17:10:54 2019, MaxMem= 4294967296 cpu:       0.3
 (Enter /opt/g09gh/gaussian/g09/l401.exe)
 Harris functional with IExCor=  205 diagonalized for initial guess.
 ExpMin= 1.03D-01 ExpMax= 1.53D+04 ExpMxC= 5.22D+02 IAcc=1 IRadAn=         1 AccDes= 0.00D+00
 HarFok:  IExCor=  205 AccDes= 0.00D+00 IRadAn=         1 IDoV= 1
 ScaDFX=  1.000000  1.000000  1.000000  1.000000
 FoFCou: FMM=F IPFlag=           0 FMFlag=      100000 FMFlg1=           0
         NFxFlg=           0 DoJE=T BraDBF=F KetDBF=T FulRan=T
         Omega=  0.000000  0.000000  1.000000  0.000000  0.000000 ICntrl=     500 IOpCl=  0
         NMat0=    1 NMatS0=    1 NMatT0=    0 NMatD0=    1 NMtDS0=    0 NMtDT0=    0
         I1Cent=           4 NGrid=           0.
 Symmetry not used in FoFCou.
 Harris En= -149.380587298171    
 Leave Link  401 at Fri Sep  6 17:10:54 2019, MaxMem= 4294967296 cpu:       3.1
 (Enter /opt/g09gh/gaussian/g09/l502.exe)
 Closed shell SCF:
 Requested convergence on RMS density matrix=1.00D-08 within  64 cycles.
 Requested convergence on MAX density matrix=1.00D-06.
 Requested convergence on             energy=1.00D-06.
 No special actions if energy rises.
 Using DIIS extrapolation, IDIIS=  1040.
 Two-electron integral symmetry not used.
 Keep R1 ints in memory in canonical form, NReq=1033198901.
 IEnd=      279762 IEndB=      279762 NGot=  4294967296 MDV=  3275498206
 LenX=  3275498206 LenY=  3275407765
 Symmetry not used in FoFDir.
 MinBra= 0 MaxBra= 3 Meth= 1.
 IRaf=       0 NMat=   1 IRICut=       1 DoRegI=T DoRafI=F ISym2E= 0 JSym2E=0.

 Cycle   1  Pass 1  IDiag  1:
 E= -148.939712229642    
 DIIS: error= 4.00D-02 at cycle   1 NSaved=   1.
 NSaved= 1 IEnMin= 1 EnMin= -148.939712229642     IErMin= 1 ErrMin= 4.00D-02
 ErrMax= 4.00D-02 EMaxC= 1.00D-01 BMatC= 3.56D-01 BMatP= 3.56D-01
 IDIUse=3 WtCom= 6.00D-01 WtEn= 4.00D-01
 Coeff-Com:  0.100D+01
 Coeff-En:   0.100D+01
 Coeff:      0.100D+01
 Gap=     0.545 Goal=   None    Shift=    0.000
 GapD=    0.545 DampG=2.000 DampE=0.500 DampFc=1.0000 IDamp=-1.
 RMSDP=1.76D-03 MaxDP=8.96D-02              OVMax= 1.68D-01

 Cycle   2  Pass 1  IDiag  1:
 E= -149.085923866870     Delta-E=       -0.146211637228 Rises=F Damp=F
 DIIS: error= 1.50D-02 at cycle   2 NSaved=   2.
 NSaved= 2 IEnMin= 2 EnMin= -149.085923866870     IErMin= 2 ErrMin= 1.50D-02
 ErrMax= 1.50D-02 EMaxC= 1.00D-01 BMatC= 5.96D-02 BMatP= 3.56D-01
 IDIUse=3 WtCom= 8.50D-01 WtEn= 1.50D-01
 Coeff-Com:  0.237D+00 0.763D+00
 Coeff-En:   0.000D+00 0.100D+01
 Coeff:      0.201D+00 0.799D+00
 Gap=     0.497 Goal=   None    Shift=    0.000
 RMSDP=9.38D-04 MaxDP=5.24D-02 DE=-1.46D-01 OVMax= 7.55D-02

 Cycle   3  Pass 1  IDiag  1:
 E= -149.129416729305     Delta-E=       -0.043492862435 Rises=F Damp=F
 DIIS: error= 4.63D-03 at cycle   3 NSaved=   3.
 NSaved= 3 IEnMin= 3 EnMin= -149.129416729305     IErMin= 3 ErrMin= 4.63D-03
 ErrMax= 4.63D-03 EMaxC= 1.00D-01 BMatC= 5.52D-03 BMatP= 5.96D-02
 IDIUse=3 WtCom= 9.54D-01 WtEn= 4.63D-02
 Coeff-Com: -0.215D-01 0.199D+00 0.822D+00
 Coeff-En:   0.000D+00 0.000D+00 0.100D+01
 Coeff:     -0.206D-01 0.190D+00 0.830D+00
 Gap=     0.471 Goal=   None    Shift=    0.000
 RMSDP=1.64D-04 MaxDP=8.73D-03 DE=-4.35D-02 OVMax= 2.89D-02

 Cycle   4  Pass 1  IDiag  1:
 E= -149.133683951617     Delta-E=       -0.004267222311 Rises=F Damp=F
 DIIS: error= 1.26D-03 at cycle   4 NSaved=   4.
 NSaved= 4 IEnMin= 4 EnMin= -149.133683951617     IErMin= 4 ErrMin= 1.26D-03
 ErrMax= 1.26D-03 EMaxC= 1.00D-01 BMatC= 2.92D-04 BMatP= 5.52D-03
 IDIUse=3 WtCom= 9.87D-01 WtEn= 1.26D-02
 Coeff-Com: -0.127D-01 0.440D-01 0.272D+00 0.696D+00
 Coeff-En:   0.000D+00 0.000D+00 0.000D+00 0.100D+01
 Coeff:     -0.126D-01 0.435D-01 0.269D+00 0.700D+00
 Gap=     0.470 Goal=   None    Shift=    0.000
 RMSDP=5.11D-05 MaxDP=2.29D-03 DE=-4.27D-03 OVMax= 4.88D-03

 Cycle   5  Pass 1  IDiag  1:
 E= -149.133969457542     Delta-E=       -0.000285505925 Rises=F Damp=F
 DIIS: error= 5.08D-04 at cycle   5 NSaved=   5.
 NSaved= 5 IEnMin= 5 EnMin= -149.133969457542     IErMin= 5 ErrMin= 5.08D-04
 ErrMax= 5.08D-04 EMaxC= 1.00D-01 BMatC= 1.76D-05 BMatP= 2.92D-04
 IDIUse=3 WtCom= 9.95D-01 WtEn= 5.08D-03
 Coeff-Com:  0.378D-02-0.261D-01-0.127D+00-0.848D-01 0.123D+01
 Coeff-En:   0.000D+00 0.000D+00 0.000D+00 0.000D+00 0.100D+01
 Coeff:      0.376D-02-0.260D-01-0.126D+00-0.843D-01 0.123D+01
 Gap=     0.470 Goal=   None    Shift=    0.000
 RMSDP=3.08D-05 MaxDP=1.23D-03 DE=-2.86D-04 OVMax= 4.52D-03

 Cycle   6  Pass 1  IDiag  1:
 E= -149.134022452963     Delta-E=       -0.000052995421 Rises=F Damp=F
 DIIS: error= 1.07D-04 at cycle   6 NSaved=   6.
 NSaved= 6 IEnMin= 6 EnMin= -149.134022452963     IErMin= 6 ErrMin= 1.07D-04
 ErrMax= 1.07D-04 EMaxC= 1.00D-01 BMatC= 2.35D-06 BMatP= 1.76D-05
 IDIUse=3 WtCom= 9.99D-01 WtEn= 1.07D-03
 Coeff-Com:  0.101D-02-0.450D-02-0.213D-01-0.821D-01 0.261D-01 0.108D+01
 Coeff-En:   0.000D+00 0.000D+00 0.000D+00 0.000D+00 0.000D+00 0.100D+01
 Coeff:      0.101D-02-0.449D-02-0.212D-01-0.820D-01 0.261D-01 0.108D+01
 Gap=     0.471 Goal=   None    Shift=    0.000
 RMSDP=1.05D-05 MaxDP=3.97D-04 DE=-5.30D-05 OVMax= 1.34D-03

 Cycle   7  Pass 1  IDiag  1:
 E= -149.134028313668     Delta-E=       -0.000005860704 Rises=F Damp=F
 DIIS: error= 6.04D-05 at cycle   7 NSaved=   7.
 NSaved= 7 IEnMin= 7 EnMin= -149.134028313668     IErMin= 7 ErrMin= 6.04D-05
 ErrMax= 6.04D-05 EMaxC= 1.00D-01 BMatC= 3.35D-07 BMatP= 2.35D-06
 IDIUse=1 WtCom= 1.00D+00 WtEn= 0.00D+00
 Coeff-Com: -0.394D-03 0.317D-02 0.172D-01-0.580D-02-0.144D+00 0.106D+00
 Coeff-Com:  0.102D+01
 Coeff:     -0.394D-03 0.317D-02 0.172D-01-0.580D-02-0.144D+00 0.106D+00
 Coeff:      0.102D+01
 Gap=     0.471 Goal=   None    Shift=    0.000
 RMSDP=3.47D-06 MaxDP=1.29D-04 DE=-5.86D-06 OVMax= 6.06D-04

 Cycle   8  Pass 1  IDiag  1:
 E= -149.134029143433     Delta-E=       -0.000000829765 Rises=F Damp=F
 DIIS: error= 1.93D-05 at cycle   8 NSaved=   8.
 NSaved= 8 IEnMin= 8 EnMin= -149.134029143433     IErMin= 8 ErrMin= 1.93D-05
 ErrMax= 1.93D-05 EMaxC= 1.00D-01 BMatC= 4.33D-08 BMatP= 3.35D-07
 IDIUse=1 WtCom= 1.00D+00 WtEn= 0.00D+00
 Coeff-Com: -0.124D-03 0.527D-03 0.250D-02 0.610D-02 0.912D-02-0.148D+00
 Coeff-Com: -0.100D+00 0.123D+01
 Coeff:     -0.124D-03 0.527D-03 0.250D-02 0.610D-02 0.912D-02-0.148D+00
 Coeff:     -0.100D+00 0.123D+01
 Gap=     0.471 Goal=   None    Shift=    0.000
 RMSDP=1.58D-06 MaxDP=6.71D-05 DE=-8.30D-07 OVMax= 2.86D-04

 Cycle   9  Pass 1  IDiag  1:
 E= -149.134029280420     Delta-E=       -0.000000136987 Rises=F Damp=F
 DIIS: error= 4.84D-06 at cycle   9 NSaved=   9.
 NSaved= 9 IEnMin= 9 EnMin= -149.134029280420     IErMin= 9 ErrMin= 4.84D-06
 ErrMax= 4.84D-06 EMaxC= 1.00D-01 BMatC= 4.30D-09 BMatP= 4.33D-08
 IDIUse=1 WtCom= 1.00D+00 WtEn= 0.00D+00
 Coeff-Com:  0.723D-04-0.486D-03-0.239D-02-0.274D-02 0.166D-01 0.264D-01
 Coeff-Com: -0.100D+00-0.255D+00 0.132D+01
 Coeff:      0.723D-04-0.486D-03-0.239D-02-0.274D-02 0.166D-01 0.264D-01
 Coeff:     -0.100D+00-0.255D+00 0.132D+01
 Gap=     0.471 Goal=   None    Shift=    0.000
 RMSDP=5.30D-07 MaxDP=2.79D-05 DE=-1.37D-07 OVMax= 8.48D-05

 Cycle  10  Pass 1  IDiag  1:
 E= -149.134029294332     Delta-E=       -0.000000013912 Rises=F Damp=F
 DIIS: error= 1.57D-06 at cycle  10 NSaved=  10.
 NSaved=10 IEnMin=10 EnMin= -149.134029294332     IErMin=10 ErrMin= 1.57D-06
 ErrMax= 1.57D-06 EMaxC= 1.00D-01 BMatC= 3.42D-10 BMatP= 4.30D-09
 IDIUse=1 WtCom= 1.00D+00 WtEn= 0.00D+00
 Coeff-Com:  0.150D-05 0.121D-04 0.205D-03-0.535D-03-0.349D-02 0.117D-01
 Coeff-Com:  0.260D-01-0.679D-01-0.300D+00 0.133D+01
 Coeff:      0.150D-05 0.121D-04 0.205D-03-0.535D-03-0.349D-02 0.117D-01
 Coeff:      0.260D-01-0.679D-01-0.300D+00 0.133D+01
 Gap=     0.471 Goal=   None    Shift=    0.000
 RMSDP=1.82D-07 MaxDP=1.13D-05 DE=-1.39D-08 OVMax= 1.95D-05

 Cycle  11  Pass 1  IDiag  1:
 E= -149.134029295361     Delta-E=       -0.000000001029 Rises=F Damp=F
 DIIS: error= 1.92D-07 at cycle  11 NSaved=  11.
 NSaved=11 IEnMin=11 EnMin= -149.134029295361     IErMin=11 ErrMin= 1.92D-07
 ErrMax= 1.92D-07 EMaxC= 1.00D-01 BMatC= 6.46D-12 BMatP= 3.42D-10
 IDIUse=1 WtCom= 1.00D+00 WtEn= 0.00D+00
 Coeff-Com: -0.260D-05 0.156D-04 0.489D-04 0.194D-03-0.264D-04-0.281D-02
 Coeff-Com: -0.272D-02 0.258D-01 0.763D-03-0.238D+00 0.122D+01
 Coeff:     -0.260D-05 0.156D-04 0.489D-04 0.194D-03-0.264D-04-0.281D-02
 Coeff:     -0.272D-02 0.258D-01 0.763D-03-0.238D+00 0.122D+01
 Gap=     0.471 Goal=   None    Shift=    0.000
 RMSDP=2.09D-08 MaxDP=7.73D-07 DE=-1.03D-09 OVMax= 2.01D-06

 Cycle  12  Pass 1  IDiag  1:
 E= -149.134029295379     Delta-E=       -0.000000000018 Rises=F Damp=F
 DIIS: error= 4.10D-08 at cycle  12 NSaved=  12.
 NSaved=12 IEnMin=12 EnMin= -149.134029295379     IErMin=12 ErrMin= 4.10D-08
 ErrMax= 4.10D-08 EMaxC= 1.00D-01 BMatC= 2.83D-13 BMatP= 6.46D-12
 IDIUse=1 WtCom= 1.00D+00 WtEn= 0.00D+00
 Coeff-Com:  0.363D-06-0.310D-05-0.156D-04-0.256D-04 0.987D-04 0.348D-03
 Coeff-Com: -0.523D-03-0.315D-02 0.101D-01 0.524D-02-0.282D+00 0.127D+01
 Coeff:      0.363D-06-0.310D-05-0.156D-04-0.256D-04 0.987D-04 0.348D-03
 Coeff:     -0.523D-03-0.315D-02 0.101D-01 0.524D-02-0.282D+00 0.127D+01
 Gap=     0.471 Goal=   None    Shift=    0.000
 RMSDP=4.82D-09 MaxDP=2.14D-07 DE=-1.75D-11 OVMax= 4.19D-07

 SCF Done:  E(RHF) =  -149.134029295     A.U. after   12 cycles
             Convg  =    0.4818D-08             -V/T =  2.0026
 KE= 1.487422742364D+02 PE=-4.921867765779D+02 EE= 1.228160503431D+02
 Leave Link  502 at Fri Sep  6 17:11:29 2019, MaxMem= 4294967296 cpu:     273.5
 (Enter /opt/g09gh/gaussian/g09/l801.exe)
 ExpMin= 1.03D-01 ExpMax= 1.53D+04 ExpMxC= 5.22D+02 IAcc=1 IRadAn=         1 AccDes= 0.00D+00
 HarFok:  IExCor=  205 AccDes= 0.00D+00 IRadAn=         1 IDoV=-2
 ScaDFX=  1.000000  1.000000  1.000000  1.000000
 Largest valence mixing into a core orbital is  2.12D-04
 Largest core mixing into a valence orbital is  3.41D-05
 Range of M.O.s used for correlation:     4   264
 NBasis=   264 NAE=    12 NBE=    12 NFC=     3 NFV=     0
 NROrb=    261 NOA=     9 NOB=     9 NVA=   252 NVB=   252
 Leave Link  801 at Fri Sep  6 17:11:29 2019, MaxMem= 4294967296 cpu:       0.3
 (Enter /opt/g09gh/gaussian/g09/l906.exe)
 Frozen-core derivative calculation, NFC=   3 NFV=   0.
 FulOut=F Deriv=T AODrv=T NAtomX=    12
   MMem=         326  MDisk=           9 MDiskD=           9
  W3Min=      950400 MinDsk=     1898750 NBas6D=         300
 NBas2D=       45780    NTT=       45150    LW2=     3500000
[...]
 LinEq1:  Iter=  8 NonCon=     1 RMS=3.17D-07 Max=3.05D-06
 LinEq1:  Iter=  9 NonCon=     1 RMS=7.80D-08 Max=6.42D-07
 LinEq1:  Iter= 10 NonCon=     1 RMS=1.18D-08 Max=1.15D-07
 LinEq1:  Iter= 11 NonCon=     1 RMS=1.22D-09 Max=1.01D-08
 LinEq1:  Iter= 12 NonCon=     1 RMS=1.63D-10 Max=1.72D-09
 LinEq1:  Iter= 13 NonCon=     0 RMS=2.30D-11 Max=2.15D-10
 Linear equations converged to 1.000D-10 1.000D-09 after    13 iterations.
 End of Minotr Frequency-dependent properties file   721 does not exist.
 End of Minotr Frequency-dependent properties file   722 does not exist.
 Leave Link 1002 at Fri Sep  6 19:17:44 2019, MaxMem= 4294967296 cpu:      28.1
 (Enter /opt/g09gh/gaussian/g09/l701.exe)
 Compute integral first derivatives.
 ... and contract with generalized density number  2.
 Leave Link  701 at Fri Sep  6 19:17:44 2019, MaxMem= 4294967296 cpu:       1.4
 (Enter /opt/g09gh/gaussian/g09/l702.exe)
 L702 exits ... SP integral derivatives will be done elsewhere.
 Leave Link  702 at Fri Sep  6 19:17:44 2019, MaxMem= 4294967296 cpu:       0.2
 (Enter /opt/g09gh/gaussian/g09/l703.exe)
 Compute integral first derivatives, UseDBF=F ICtDFT=           0.
 Integral derivatives from FoFDir, PRISM(SPDF).
 Calling FoFJK, ICntrl=      2127 FMM=F ISym2X=0 I1Cent= 0 IOpClX= 0 NMat=1 NMatS=1 NMatT=0.
 FoFCou: FMM=F IPFlag=           0 FMFlag=      100000 FMFlg1=         800
         NFxFlg=           0 DoJE=F BraDBF=F KetDBF=F FulRan=T
         Omega=  0.000000  0.000000  1.000000  0.000000  0.000000 ICntrl=    2127 IOpCl=  0
         NMat0=    1 NMatS0=    1 NMatT0=    0 NMatD0=    1 NMtDS0=    0 NMtDT0=    0
         I1Cent=           0 NGrid=           0.
 Symmetry not used in FoFCou.
 Leave Link  703 at Fri Sep  6 19:17:46 2019, MaxMem= 4294967296 cpu:      15.0
 (Enter /opt/g09gh/gaussian/g09/l716.exe)
 Dipole        = 7.75988203D-01 8.05952632D-01-7.97384132D-08
 Cartesian Forces:  Max     0.029725861 RMS     0.006528620
 Leave Link  716 at Fri Sep  6 19:17:46 2019, MaxMem= 4294967296 cpu:       0.2
 (Enter /opt/g09gh/gaussian/g09/l122.exe)
 Restoring MOs from calculation   1 to rwf.
 Counterpoise: corrected energy =    -339.219433543410
 Counterpoise: BSSE energy =       0.004399194896
 Leave Link  122 at Fri Sep  6 19:17:46 2019, MaxMem= 4294967296 cpu:       0.0
 (Enter /opt/g09gh/gaussian/g09/l716.exe)
 Dipole        = 1.22731186D+00 1.00461395D-01 2.79428526D-06
 -------------------------------------------------------------------
 Center     Atomic                   Forces (Hartrees/Bohr)
 Number     Number              X              Y              Z
 -------------------------------------------------------------------
      1        6          -0.000000120    0.000002656    0.000000191
      2        1          -0.000000592   -0.000000008   -0.000000192
      3        8           0.000000139   -0.000001074    0.000000023
      4        8           0.000002120   -0.000001248    0.000000330
      5        1          -0.000000874   -0.000000284   -0.000000527
      6        6          -0.000001009   -0.000003360    0.000000453
      7        1           0.000000377    0.000000405   -0.000000088
      8        7           0.000001662    0.000001895    0.000000155
      9        1          -0.000000304    0.000000265   -0.000000148
     10        7          -0.000002322    0.000002109   -0.000000165
     11        1           0.000000285   -0.000000593    0.000000058
     12        1           0.000000637   -0.000000763   -0.000000091
 -------------------------------------------------------------------
 Cartesian Forces:  Max     0.000003360 RMS     0.000001138
 Leave Link  716 at Fri Sep  6 19:17:46 2019, MaxMem= 4294967296 cpu:       0.2
 (Enter /opt/g09gh/gaussian/g09/l103.exe)

 GradGradGradGradGradGradGradGradGradGradGradGradGradGradGradGradGradGrad
 Berny optimization.
 Using GEDIIS/GDIIS optimizer.
 Internal  Forces:  Max     0.000002554 RMS     0.000000636
 Search for a local minimum.
 Step number  18 out of a maximum of   56
 All quantities printed in internal units (Hartrees-Bohrs-Radians)
 RMS Force = .63571D-06 SwitMx=.10000D-02 MixMth= 2
 Mixed Optimization -- En-DIIS/RFO-DIIS
 Swaping is turned off.
 Update second derivatives using D2CorX and points    4    5    6    7    8
                                                      9   10   11   12   13
                                                     14   15   16   17   18
 DE= -4.24D-08 DEPred=-1.73D-09 R= 2.45D+01
 Trust test= 2.45D+01 RLast= 3.53D-04 DXMaxT set to 8.49D-01
     Eigenvalues ---    0.00412   0.00728   0.01022   0.01152   0.01804
     Eigenvalues ---    0.01843   0.02035   0.02467   0.02608   0.02739
     Eigenvalues ---    0.03306   0.04927   0.06889   0.08502   0.12756
     Eigenvalues ---    0.15430   0.16136   0.16291   0.19129   0.23218
     Eigenvalues ---    0.30891   0.32732   0.35380   0.44619   0.45151
     Eigenvalues ---    0.46184   0.55054   0.64448   0.67457   0.84581
     Eigenvalues --- 1000.000001000.000001000.000001000.000001000.00000
     Eigenvalues --- 1000.000001000.000001000.000001000.000001000.00000
     Eigenvalues --- 1000.000001000.000001000.000001000.000001000.00000
     Eigenvalues --- 1000.00000
 En-DIIS/RFO-DIIS IScMMF=        0 using points:    18   17   16   15   14
 RFO step:  Lambda= 0.00000000D+00.
 DIIS coeffs:      1.04021     -0.02107     -0.03520      0.00681      0.00925
 Iteration  1 RMS(Cart)=  0.00001010 RMS(Int)=  0.00000000
 Iteration  2 RMS(Cart)=  0.00000000 RMS(Int)=  0.00000000
 Variable       Old X    -DE/DX   Delta X   Delta X   Delta X     New X
                                  (DIIS)     (GDIIS)  (Total)
    R1        2.06828   0.00000   0.00000   0.00000   0.00000   2.06828
    R2        2.30320   0.00000   0.00000   0.00000   0.00000   2.30320
    R3        2.48146   0.00000   0.00000   0.00000   0.00000   2.48147
    R4        3.60996   0.00000  -0.00005   0.00001  -0.00004   3.60992
    R5        1.92551   0.00000   0.00000   0.00000   0.00000   1.92551
    R6        3.14950   0.00000  -0.00001   0.00001   0.00000   3.14950
    R7        2.05734   0.00000   0.00000   0.00000   0.00000   2.05734
    R8        2.43732   0.00000   0.00000   0.00000   0.00000   2.43732
    R9        2.53701   0.00000   0.00000   0.00000   0.00000   2.53701
   R10        1.91201   0.00000   0.00000   0.00000   0.00000   1.91200
   R11        1.91923   0.00000   0.00000   0.00000   0.00000   1.91923
   R12        1.88909   0.00000   0.00000   0.00000   0.00000   1.88909
    A1        2.13019   0.00000   0.00000   0.00000   0.00000   2.13019
    A2        1.93647   0.00000   0.00000   0.00000   0.00000   1.93647
    A3        2.21653   0.00000   0.00000   0.00000   0.00000   2.21652
    A4        2.18385   0.00000  -0.00001   0.00000   0.00000   2.18385
    A5        1.93378   0.00000   0.00000   0.00000   0.00000   1.93379
    A6        2.14508   0.00000   0.00000   0.00000   0.00000   2.14508
    A7        1.99745   0.00000   0.00000   0.00000   0.00000   1.99745
    A8        2.14066   0.00000   0.00000   0.00000   0.00000   2.14066
    A9        2.18832   0.00000  -0.00001   0.00000  -0.00001   2.18832
   A10        2.16903   0.00000   0.00001   0.00000   0.00000   2.16903
   A11        1.92583   0.00000   0.00000   0.00000   0.00000   1.92584
   A12        2.08169   0.00000   0.00000   0.00000   0.00000   2.08169
   A13        2.09707   0.00000   0.00000  -0.00001  -0.00001   2.09707
   A14        2.10442   0.00000   0.00001   0.00000   0.00001   2.10443
   A15        2.89276   0.00000   0.00002   0.00000   0.00001   2.89277
   A16        3.21196   0.00000   0.00000   0.00000   0.00000   3.21196
   A17        3.14161   0.00000   0.00000  -0.00004  -0.00004   3.14158
    D1        3.14159   0.00000   0.00000   0.00000   0.00000   3.14159
    D2        0.00000   0.00000   0.00000   0.00000   0.00000   0.00000
    D3       -3.14159   0.00000   0.00000  -0.00001  -0.00001   3.14159
    D4        0.00000   0.00000   0.00000  -0.00001  -0.00001  -0.00001
    D5        0.00001   0.00000   0.00000  -0.00001  -0.00001   0.00000
    D6        0.00000   0.00000   0.00000   0.00000   0.00000   0.00000
    D7       -3.14159   0.00000   0.00000   0.00000   0.00000  -3.14159
    D8        3.14159   0.00000   0.00000   0.00001   0.00001  -3.14159
    D9        0.00000   0.00000   0.00000   0.00000   0.00000   0.00000
   D10        0.00000   0.00000   0.00000   0.00000   0.00000   0.00000
   D11       -3.14159   0.00000   0.00000  -0.00001  -0.00001   3.14159
   D12        3.14159   0.00000   0.00000   0.00000   0.00000  -3.14159
   D13        0.00000   0.00000   0.00000   0.00000   0.00000   0.00000
   D14       -0.00001   0.00000   0.00000   0.00001   0.00001   0.00000
   D15        3.14159   0.00000   0.00000   0.00001   0.00001  -3.14159
   D16        0.00000   0.00000   0.00000   0.00000   0.00000   0.00000
   D17        3.14159   0.00000   0.00000   0.00000   0.00000  -3.14159
         Item               Value     Threshold  Converged?
 Maximum Force            0.000003     0.000015     YES
 RMS     Force            0.000001     0.000010     YES
 Maximum Displacement     0.000027     0.000060     YES
 RMS     Displacement     0.000010     0.000040     YES
 Predicted change in Energy=-4.708287D-11
 Optimization completed.
    -- Stationary point found.
                           ----------------------------
                           !   Optimized Parameters   !
                           ! (Angstroms and Degrees)  !
 --------------------------                            --------------------------
 ! Name  Definition              Value          Derivative Info.                !
 --------------------------------------------------------------------------------
 ! R1    R(1,2)                  1.0945         -DE/DX =    0.0                 !
 ! R2    R(1,3)                  1.2188         -DE/DX =    0.0                 !
 ! R3    R(1,4)                  1.3131         -DE/DX =    0.0                 !
 ! R4    R(3,11)                 1.9103         -DE/DX =    0.0                 !
 ! R5    R(4,5)                  1.0189         -DE/DX =    0.0                 !
 ! R6    R(5,8)                  1.6666         -DE/DX =    0.0                 !
 ! R7    R(6,7)                  1.0887         -DE/DX =    0.0                 !
 ! R8    R(6,8)                  1.2898         -DE/DX =    0.0                 !
 ! R9    R(6,10)                 1.3425         -DE/DX =    0.0                 !
 ! R10   R(8,9)                  1.0118         -DE/DX =    0.0                 !
 ! R11   R(10,11)                1.0156         -DE/DX =    0.0                 !
 ! R12   R(10,12)                0.9997         -DE/DX =    0.0                 !
 ! A1    A(2,1,3)              122.051          -DE/DX =    0.0                 !
 ! A2    A(2,1,4)              110.9514         -DE/DX =    0.0                 !
 ! A3    A(3,1,4)              126.9976         -DE/DX =    0.0                 !
 ! A4    A(1,3,11)             125.1254         -DE/DX =    0.0                 !
 ! A5    A(1,4,5)              110.7977         -DE/DX =    0.0                 !
 ! A6    A(7,6,8)              122.904          -DE/DX =    0.0                 !
 ! A7    A(7,6,10)             114.4454         -DE/DX =    0.0                 !
 ! A8    A(8,6,10)             122.6506         -DE/DX =    0.0                 !
 ! A9    A(5,8,6)              125.3817         -DE/DX =    0.0                 !
 ! A10   A(5,8,9)              124.2762         -DE/DX =    0.0                 !
 ! A11   A(6,8,9)              110.3421         -DE/DX =    0.0                 !
 ! A12   A(6,10,11)            119.2723         -DE/DX =    0.0                 !
 ! A13   A(6,10,12)            120.1535         -DE/DX =    0.0                 !
 ! A14   A(11,10,12)           120.5742         -DE/DX =    0.0                 !
 ! A15   A(3,11,10)            165.7428         -DE/DX =    0.0                 !
 ! A16   L(4,5,8,1,-1)         184.032          -DE/DX =    0.0                 !
 ! A17   L(4,5,8,1,-2)         180.0012         -DE/DX =    0.0                 !
 ! D1    D(2,1,3,11)           180.0            -DE/DX =    0.0                 !
 ! D2    D(4,1,3,11)             0.0002         -DE/DX =    0.0                 !
 ! D3    D(2,1,4,5)            180.0003         -DE/DX =    0.0                 !
 ! D4    D(3,1,4,5)              0.0001         -DE/DX =    0.0                 !
 ! D5    D(1,3,11,10)            0.0004         -DE/DX =    0.0                 !
 ! D6    D(1,4,8,6)              0.0002         -DE/DX =    0.0                 !
 ! D7    D(1,4,8,9)           -179.9998         -DE/DX =    0.0                 !
 ! D8    D(7,6,8,5)           -180.0003         -DE/DX =    0.0                 !
 ! D9    D(7,6,8,9)              0.0            -DE/DX =    0.0                 !
 ! D10   D(10,6,8,5)            -0.0001         -DE/DX =    0.0                 !
 ! D11   D(10,6,8,9)           180.0003         -DE/DX =    0.0                 !
 ! D12   D(7,6,10,11)         -180.0001         -DE/DX =    0.0                 !
 ! D13   D(7,6,10,12)            0.0            -DE/DX =    0.0                 !
 ! D14   D(8,6,10,11)           -0.0004         -DE/DX =    0.0                 !
 ! D15   D(8,6,10,12)         -180.0002         -DE/DX =    0.0                 !
 ! D16   D(6,10,11,3)           -0.0001         -DE/DX =    0.0                 !
 ! D17   D(12,10,11,3)        -180.0002         -DE/DX =    0.0                 !
 --------------------------------------------------------------------------------
 GradGradGradGradGradGradGradGradGradGradGradGradGradGradGradGradGradGrad

 Largest change from initial coordinates is atom    5       0.077 Angstoms.
 Leave Link  103 at Fri Sep  6 19:17:46 2019, MaxMem= 4294967296 cpu:       0.1
 (Enter /opt/g09gh/gaussian/g09/l202.exe)
                          Input orientation:                          
 ---------------------------------------------------------------------
 Center     Atomic      Atomic             Coordinates (Angstroms)
 Number     Number       Type             X           Y           Z
 ---------------------------------------------------------------------
      1          6           0       -1.964447    0.160989   -0.000002
      2          1           0       -3.058932    0.162709   -0.000004
      3          8           0       -1.316038    1.192996   -0.000002
      4          8           0       -1.496830   -1.066063    0.000002
      5          1           0       -0.477892   -1.064931    0.000009
      6          6           0        2.002549   -0.182905   -0.000003
      7          1           0        3.084365   -0.305130   -0.000005
      8          7           0        1.184758   -1.180272   -0.000001
      9          1           0        1.695353   -2.053777   -0.000001
     10          7           0        1.587699    1.093919    0.000002
     11          1           0        0.591682    1.292452    0.000001
     12          1           0        2.254619    1.838595    0.000004
 ---------------------------------------------------------------------
                    Distance matrix (angstroms):
                    1          2          3          4          5
     1  C    0.000000
     2  H    1.094487   0.000000
     3  O    1.218800   2.024641   0.000000
     4  O    1.313134   1.987472   2.266282   0.000000
     5  H    1.926844   2.858124   2.408470   1.018939   0.000000
     6  C    3.981874   5.073268   3.592510   3.609102   2.632595
     7  H    5.070283   6.161086   4.648434   4.643960   3.642385
     8  N    3.422933   4.451124   3.447664   2.684019   1.666646
     9  H    4.277771   5.245574   4.428320   3.341498   2.387637
    10  N    3.672615   4.739023   2.905427   3.765613   2.987859
    11  H    2.795354   3.821427   1.910311   3.150313   2.588676
    12  H    4.540361   5.571573   3.628552   4.744513   3.987114
                    6          7          8          9         10
     6  C    0.000000
     7  H    1.088699   0.000000
     8  N    1.289777   2.091502   0.000000
     9  H    1.895925   2.233186   1.011790   0.000000
    10  N    1.342527   2.048743   2.309611   3.149536   0.000000
    11  H    2.041378   2.960699   2.542854   3.523541   1.015612
    12  H    2.037155   2.298703   3.202836   3.932345   0.999663
                   11         12
    11  H    0.000000
    12  H    1.750324   0.000000
 Symmetry turned off by external request.
 Stoichiometry    C2H6N2O2
 Framework group  C1[X(C2H6N2O2)]
 Deg. of freedom    30
 Full point group                 C1      NOp   1
 Rotational constants (GHZ):      5.7118132      2.1008507      1.5359251
 Leave Link  202 at Fri Sep  6 19:17:46 2019, MaxMem= 4294967296 cpu:       0.1
 (Enter /opt/g09gh/gaussian/g09/l601.exe)
 Copying SCF densities to generalized density rwf, IOpCl= 0 IROHF=0.

 **********************************************************************

            Population analysis using the SCF density.

 **********************************************************************

 Electronic spatial extent (au):  <R**2>=            726.4596
 Charge=              0.0000 electrons
 Dipole moment (field-independent basis, Debye):
    X=              3.1700    Y=              0.2030    Z=              0.0000  Tot=              3.1764
 Quadrupole moment (field-independent basis, Debye-Ang):
   XX=            -22.4967   YY=            -36.3776   ZZ=            -37.5370
   XY=              1.1362   XZ=              0.0000   YZ=              0.0000
 Traceless Quadrupole moment (field-independent basis, Debye-Ang):
   XX=              9.6404   YY=             -4.2405   ZZ=             -5.3999
   XY=              1.1362   XZ=              0.0000   YZ=              0.0000
 Octapole moment (field-independent basis, Debye-Ang**2):
  XXX=              6.0919  YYY=             -0.7388  ZZZ=              0.0001  XYY=             18.6440
  XXY=              4.0602  XXZ=              0.0000  XZZ=             -5.7361  YZZ=              0.2990
  YYZ=              0.0001  XYZ=              0.0000
 Hexadecapole moment (field-independent basis, Debye-Ang**3):
 XXXX=           -489.1767 YYYY=           -216.0983 ZZZZ=            -33.7224 XXXY=              6.4174
 XXXZ=              0.0001 YYYX=             11.1354 YYYZ=              0.0001 ZZZX=              0.0000
 ZZZY=              0.0000 XXYY=           -134.5432 XXZZ=           -114.5867 YYZZ=            -49.5449
 XXYZ=              0.0001 YYXZ=              0.0000 ZZXY=              1.0429
 No NMR shielding tensors so no spin-rotation constants.
 Leave Link  601 at Fri Sep  6 19:17:46 2019, MaxMem= 4294967296 cpu:       1.4
 (Enter /opt/g09gh/gaussian/g09/l9999.exe)

 Test job not archived.
 1\1\GINC-NODE37\FOpt\RMP2-FC\CC-pVTZ\C2H6N2O2\XY3866\06-Sep-2019\0\\#p
  MP2/cc-pvtz counterpoise=2 IOP(5/13=1) scf=tight Symmetry=None MaxDis
 k=100GB Opt=tight\\Opt=tight\\0,1\C,-1.9644466806,0.1609889854,-0.0000
 023132\H,-3.0589324715,0.1627094883,-0.00000392\O,-1.3160383166,1.1929
 964974,-0.0000020023\O,-1.4968295957,-1.0660628551,0.0000023556\H,-0.4
 778916735,-1.0649313777,0.0000088233\C,2.0025491356,-0.1829045172,-0.0
 000028947\H,3.0843651307,-0.3051302224,-0.0000045935\N,1.1847580419,-1
 .1802716659,-0.0000010356\H,1.6953532896,-2.0537766837,-0.0000009988\N
 ,1.58769932,1.0939185577,0.0000017022\H,0.591681697,1.2924524223,0.000
 0013511\H,2.2546192231,1.8385950709,0.000003526\\Version=EM64L-G09RevA
 .02\HF=-149.13931\MP2=-149.7205893\RMSD=5.459e-09\RMSF=1.138e-06\Dipol
 e=1.2471549,0.0798682,0.0000015\Quadrupole=7.1674048,-3.1527118,-4.014
 693,0.8447258,0.0000015,0.0000041\PG=C01 [X(C2H6N2O2)]\\@


 UNLESS WE CHANGE DIRECTIONS, WE WILL WIND UP WHERE WE ARE HEADED.
     -- CONFUCIUS
 Job cpu time:  0 days 17 hours 35 minutes 53.3 seconds.
 File lengths (MBytes):  RWF=     47 Int=      0 D2E=      0 Chk=     13 Scr=      1
 Normal termination of Gaussian 09 at Fri Sep  6 19:17:47 2019.
