 Entering Gaussian System, Link 0=g09
 Input=HBC1-FaNNFaNN-3.4-dimer.com
 Output=HBC1-FaNNFaNN-3.4-dimer.out
 Initial command:
 /opt/g09gh/gaussian/g09/l1.exe /scratch/xy3866/Gau-81982.inp -scrdir=/scratch/xy3866/
 Entering Link 1 = /opt/g09gh/gaussian/g09/l1.exe PID=     81983.
  
 Copyright (c) 1988,1990,1992,1993,1995,1998,2003,2009, Gaussian, Inc.
                  All Rights Reserved.
  
 This is part of the Gaussian(R) 09 program.  It is based on
 the Gaussian(R) 03 system (copyright 2003, Gaussian, Inc.),
 the Gaussian(R) 98 system (copyright 1998, Gaussian, Inc.),
 the Gaussian(R) 94 system (copyright 1995, Gaussian, Inc.),
 the Gaussian 92(TM) system (copyright 1992, Gaussian, Inc.),
 the Gaussian 90(TM) system (copyright 1990, Gaussian, Inc.),
 the Gaussian 88(TM) system (copyright 1988, Gaussian, Inc.),
 the Gaussian 86(TM) system (copyright 1986, Carnegie Mellon
 University), and the Gaussian 82(TM) system (copyright 1983,
 Carnegie Mellon University). Gaussian is a federally registered
 trademark of Gaussian, Inc.
  
 This software contains proprietary and confidential information,
 including trade secrets, belonging to Gaussian, Inc.
  
 This software is provided under written license and may be
 used, copied, transmitted, or stored only in accord with that
 written license.
  
 The following legend is applicable only to US Government
 contracts under FAR:
  
                    RESTRICTED RIGHTS LEGEND
  
 Use, reproduction and disclosure by the US Government is
 subject to restrictions as set forth in subparagraphs (a)
 and (c) of the Commercial Computer Software - Restricted
 Rights clause in FAR 52.227-19.
  
 Gaussian, Inc.
 340 Quinnipiac St., Bldg. 40, Wallingford CT 06492
  
  
 ---------------------------------------------------------------
 Warning -- This program may not be used in any manner that
 competes with the business of Gaussian, Inc. or will provide
 assistance to any competitor of Gaussian, Inc.  The licensee
 of this program is prohibited from giving any competitor of
 Gaussian, Inc. access to this program.  By using this program,
 the user acknowledges that Gaussian, Inc. is engaged in the
 business of creating and licensing software in the field of
 computational chemistry and represents and warrants to the
 licensee that it is not a competitor of Gaussian, Inc. and that
 it will not use this program in any manner prohibited above.
 ---------------------------------------------------------------
  

 Cite this work as:
 Gaussian 09, Revision A.02,
 M. J. Frisch, G. W. Trucks, H. B. Schlegel, G. E. Scuseria, 
 M. A. Robb, J. R. Cheeseman, G. Scalmani, V. Barone, B. Mennucci, 
 G. A. Petersson, H. Nakatsuji, M. Caricato, X. Li, H. P. Hratchian, 
 A. F. Izmaylov, J. Bloino, G. Zheng, J. L. Sonnenberg, M. Hada, 
 M. Ehara, K. Toyota, R. Fukuda, J. Hasegawa, M. Ishida, T. Nakajima, 
 Y. Honda, O. Kitao, H. Nakai, T. Vreven, J. A. Montgomery, Jr., 
 J. E. Peralta, F. Ogliaro, M. Bearpark, J. J. Heyd, E. Brothers, 
 K. N. Kudin, V. N. Staroverov, R. Kobayashi, J. Normand, 
 K. Raghavachari, A. Rendell, J. C. Burant, S. S. Iyengar, J. Tomasi, 
 M. Cossi, N. Rega, J. M. Millam, M. Klene, J. E. Knox, J. B. Cross, 
 V. Bakken, C. Adamo, J. Jaramillo, R. Gomperts, R. E. Stratmann, 
 O. Yazyev, A. J. Austin, R. Cammi, C. Pomelli, J. W. Ochterski, 
 R. L. Martin, K. Morokuma, V. G. Zakrzewski, G. A. Voth, 
 P. Salvador, J. J. Dannenberg, S. Dapprich, A. D. Daniels, 
 O. Farkas, J. B. Foresman, J. V. Ortiz, J. Cioslowski, 
 and D. J. Fox, Gaussian, Inc., Wallingford CT, 2009.
 
 ******************************************
 Gaussian 09:  EM64L-G09RevA.02 11-Jun-2009
                 6-Sep-2019 
 ******************************************
 %NoSave
 %chk=HBC1-FaNNFaNN-3.4-dimer.chk
 %nproc=8
 Will use up to    8 processors via shared memory.
 %Mem=32GB
 ----------------------------------------------------------------------
 #p MP2/cc-pvtz counterpoise=2 IOP(5/13=1) scf=tight Symmetry=None MaxD
 isk=100GB Opt=tight
 ----------------------------------------------------------------------
 1/7=10,18=20,19=15,38=1,62=2/1,3;
 2/9=110,12=2,15=1,17=6,18=5,40=1/2;
 1/7=10,18=20,19=15,38=1,53=5172,62=2,63=100/22;
 3/5=16,6=1,11=9,16=1,25=1,30=1,71=1/1,2,3;
 4//1;
 5/5=2,13=1,32=2,38=5/2;
 8/6=4,10=1/1;
 9/15=2,16=-3/6;
 10/5=1,31=1/2;
 6/7=2,8=2,9=2,10=2/1;
 7/7=1,12=2,30=1,33=-1/1,2,3,16;
 1/7=10,18=20,19=15,53=4052,62=2,63=101/22;
 3/5=7,6=11,11=9,16=1,25=1,30=1,71=1,82=7/1,2,3;
 4//1;
 5/5=2,13=1,32=2,38=5/2;
 8/6=4,10=1/1;
 9/15=2,16=-3/6;
 10/5=1,31=1/2;
 6/7=2,8=2,9=2,10=2/1;
 7/7=1,12=2,30=1,33=-1/1,2,3,16;
 1/7=10,18=20,19=15,53=3042,62=2,63=102/22;
 3/5=7,6=11,11=9,16=1,25=1,30=1,71=1,82=7/1,2,3;
 4//1;
 5/5=2,13=1,32=2,38=5/2;
 8/6=4,10=1/1;
 9/15=2,16=-3/6;
 10/5=1,31=1/2;
 6/7=2,8=2,9=2,10=2/1;
 7/7=1,12=2,30=1,33=-1/1,2,3,16;
 1/7=10,18=20,19=15,53=2032,62=2,63=103/22;
 3/5=7,6=11,11=9,16=1,25=1,30=1,71=1,82=7/1,2,3;
 4//1;
 5/5=2,13=1,32=2,38=5/2;
 8/6=4,10=1/1;
 9/15=2,16=-3/6;
 10/5=1,31=1/2;
 6/7=2,8=2,9=2,10=2/1;
 7/7=1,12=2,30=1,33=-1/1,2,3,16;
 1/7=10,18=20,19=15,53=1022,62=2,63=104/22;
 3/5=7,6=11,11=9,16=1,25=1,30=1,71=1,82=7/1,2,3;
 4//1;
 5/5=2,13=1,32=2,38=5/2;
 8/6=4,10=1/1;
 9/15=2,16=-3/6;
 10/5=1,31=1/2;
 6/7=2,8=2,9=2,10=2/1;
 7/7=1,12=2,30=1,33=-1/1,2,3,16;
 1/7=10,18=20,19=15,53=5015,62=2,63=105/22;
 7/9=1,44=-1/16;
 1/7=10,18=20,19=15,62=2,63=100/3(2);
 2/9=110,15=1/2;
 99//99;
 2/9=110,15=1/2;
 1/7=10,18=20,19=15,53=5173,62=2,63=100/22;
 3/5=7,6=11,11=9,16=1,25=1,30=1,71=1,82=7/1,2,3;
 4/5=5,16=3/1;
 5/5=2,13=1,32=2,38=5/2;
 8/6=4,10=1/1;
 9/15=2,16=-3/6;
 10/5=1,31=1/2;
 7/7=1,12=2,30=1,33=-1/1,2,3,16;
 1/7=10,18=20,19=15,53=4053,62=2,63=101/22;
 3/5=7,6=11,11=9,16=1,25=1,30=1,71=1,82=7/1,2,3;
 4/5=5,16=3/1;
 5/5=2,13=1,32=2,38=5/2;
 8/6=4,10=1/1;
 9/15=2,16=-3/6;
 10/5=1,31=1/2;
 7/7=1,12=2,30=1,33=-1/1,2,3,16;
 1/7=10,18=20,19=15,53=3043,62=2,63=102/22;
 3/5=7,6=11,11=9,16=1,25=1,30=1,71=1,82=7/1,2,3;
 4/5=5,16=3/1;
 5/5=2,13=1,32=2,38=5/2;
 8/6=4,10=1/1;
 9/15=2,16=-3/6;
 10/5=1,31=1/2;
 7/7=1,12=2,30=1,33=-1/1,2,3,16;
 1/7=10,18=20,19=15,53=2033,62=2,63=103/22;
 3/5=7,6=11,11=9,16=1,25=1,30=1,71=1,82=7/1,2,3;
 4/5=5,16=3/1;
 5/5=2,13=1,32=2,38=5/2;
 8/6=4,10=1/1;
 9/15=2,16=-3/6;
 10/5=1,31=1/2;
 7/7=1,12=2,30=1,33=-1/1,2,3,16;
 1/7=10,18=20,19=15,53=1024,62=2,63=104/22;
 3/5=7,6=11,11=9,16=1,25=1,30=1,71=1,82=7/1,2,3;
 4/5=5,16=3/1;
 5/5=2,13=1,32=2,38=5/2;
 8/6=4,10=1/1;
 9/15=2,16=-3/6;
 10/5=1,31=1/2;
 7/7=1,12=2,30=1,33=-1/1,2,3,16;
 1/7=10,18=20,19=15,53=5015,62=2,63=105/22;
 7/9=1,44=-1/16;
 1/7=10,18=20,19=15,62=2,63=100/3(-43);
 2/9=110,15=1/2;
 6/7=2,8=2,9=2,10=2/1;
 99//99;
 Leave Link    1 at Fri Sep  6 15:47:53 2019, MaxMem= 4294967296 cpu:       0.3
 (Enter /opt/g09gh/gaussian/g09/l101.exe)
 ---------
 Opt=tight
 ---------
 Symbolic Z-matrix:
 Charge =  0 Multiplicity = 1 in supermolecule
 Charge =  0 Multiplicity = 1 in fragment  1.
 Charge =  0 Multiplicity = 1 in fragment  2.
 C(Fragment=1)         1.69498  -0.13052   0. 
 H(Fragment=1)         2.80634  -0.2161    0. 
 N(Fragment=1)         1.09906  -1.29491   0. 
 H(Fragment=1)         1.82089  -2.01478   0. 
 N(Fragment=1)         1.37286   1.16801   0. 
 H(Fragment=1)         0.35213   1.46533   0. 
 H(Fragment=1)         2.16582   1.79503   0. 
 C(Fragment=2)        -1.69498   0.13052   0. 
 H(Fragment=2)        -2.80634   0.2161    0. 
 N(Fragment=2)        -1.09906   1.29491   0. 
 H(Fragment=2)        -1.82089   2.01478   0. 
 N(Fragment=2)        -1.37286  -1.16801   0. 
 H(Fragment=2)        -0.35213  -1.46533   0. 
 H(Fragment=2)        -2.16582  -1.79503   0. 
 
 NAtoms=     14 NQM=     14 NQMF=      0 NMic=      0 NMicF=      0 NTot=     14.
                    Isotopes and Nuclear Properties:
 (Nuclear quadrupole moments (NQMom) in fm**2, nuclear magnetic moments (NMagM)
  in nuclear magnetons)

  Atom         1           2           3           4           5           6           7           8           9          10
 IAtWgt=          12           1          14           1          14           1           1          12           1          14
 AtmWgt=  12.0000000   1.0078250  14.0030740   1.0078250  14.0030740   1.0078250   1.0078250  12.0000000   1.0078250  14.0030740
 NucSpn=           0           1           2           1           2           1           1           0           1           2
 AtZEff=   0.0000000   0.0000000   0.0000000   0.0000000   0.0000000   0.0000000   0.0000000   0.0000000   0.0000000   0.0000000
 NQMom=    0.0000000   0.0000000   2.0440000   0.0000000   2.0440000   0.0000000   0.0000000   0.0000000   0.0000000   2.0440000
 NMagM=    0.0000000   2.7928460   0.4037610   2.7928460   0.4037610   2.7928460   2.7928460   0.0000000   2.7928460   0.4037610

  Atom        11          12          13          14
 IAtWgt=           1          14           1           1
 AtmWgt=   1.0078250  14.0030740   1.0078250   1.0078250
 NucSpn=           1           2           1           1
 AtZEff=   0.0000000   0.0000000   0.0000000   0.0000000
 NQMom=    0.0000000   2.0440000   0.0000000   0.0000000
 NMagM=    2.7928460   0.4037610   2.7928460   2.7928460
 Leave Link  101 at Fri Sep  6 15:47:53 2019, MaxMem= 4294967296 cpu:       0.6
 (Enter /opt/g09gh/gaussian/g09/l103.exe)

 GradGradGradGradGradGradGradGradGradGradGradGradGradGradGradGradGradGrad
 Berny optimization.
 Initialization pass.
                           ----------------------------
                           !    Initial Parameters    !
                           ! (Angstroms and Degrees)  !
 --------------------------                            --------------------------
 ! Name  Definition              Value          Derivative Info.                !
 --------------------------------------------------------------------------------
 ! R1    R(1,2)                  1.1146         estimate D2E/DX2                !
 ! R2    R(1,3)                  1.308          estimate D2E/DX2                !
 ! R3    R(1,5)                  1.3379         estimate D2E/DX2                !
 ! R4    R(3,4)                  1.0194         estimate D2E/DX2                !
 ! R5    R(3,13)                 1.4612         estimate D2E/DX2                !
 ! R6    R(5,6)                  1.0632         estimate D2E/DX2                !
 ! R7    R(5,7)                  1.0109         estimate D2E/DX2                !
 ! R8    R(6,10)                 1.4612         estimate D2E/DX2                !
 ! R9    R(8,9)                  1.1146         estimate D2E/DX2                !
 ! R10   R(8,10)                 1.308          estimate D2E/DX2                !
 ! R11   R(8,12)                 1.3379         estimate D2E/DX2                !
 ! R12   R(10,11)                1.0194         estimate D2E/DX2                !
 ! R13   R(12,13)                1.0632         estimate D2E/DX2                !
 ! R14   R(12,14)                1.0109         estimate D2E/DX2                !
 ! A1    A(2,1,3)              112.6996         estimate D2E/DX2                !
 ! A2    A(2,1,5)              108.3351         estimate D2E/DX2                !
 ! A3    A(3,1,5)              138.9653         estimate D2E/DX2                !
 ! A4    A(1,3,4)              107.8191         estimate D2E/DX2                !
 ! A5    A(1,3,13)             123.8006         estimate D2E/DX2                !
 ! A6    A(4,3,13)             128.3803         estimate D2E/DX2                !
 ! A7    A(1,5,6)              120.1717         estimate D2E/DX2                !
 ! A8    A(1,5,7)              114.4031         estimate D2E/DX2                !
 ! A9    A(6,5,7)              125.4252         estimate D2E/DX2                !
 ! A10   A(5,6,10)             157.0624         estimate D2E/DX2                !
 ! A11   A(9,8,10)             112.6996         estimate D2E/DX2                !
 ! A12   A(9,8,12)             108.3351         estimate D2E/DX2                !
 ! A13   A(10,8,12)            138.9653         estimate D2E/DX2                !
 ! A14   A(6,10,8)             123.8006         estimate D2E/DX2                !
 ! A15   A(6,10,11)            128.3803         estimate D2E/DX2                !
 ! A16   A(8,10,11)            107.8191         estimate D2E/DX2                !
 ! A17   A(8,12,13)            120.1717         estimate D2E/DX2                !
 ! A18   A(8,12,14)            114.4031         estimate D2E/DX2                !
 ! A19   A(13,12,14)           125.4252         estimate D2E/DX2                !
 ! A20   A(3,13,12)            157.0624         estimate D2E/DX2                !
 ! D1    D(2,1,3,4)              0.0            estimate D2E/DX2                !
 ! D2    D(2,1,3,13)           180.0            estimate D2E/DX2                !
 ! D3    D(5,1,3,4)            180.0            estimate D2E/DX2                !
 ! D4    D(5,1,3,13)             0.0            estimate D2E/DX2                !
 ! D5    D(2,1,5,6)            180.0            estimate D2E/DX2                !
 ! D6    D(2,1,5,7)              0.0            estimate D2E/DX2                !
 ! D7    D(3,1,5,6)              0.0            estimate D2E/DX2                !
 ! D8    D(3,1,5,7)            180.0            estimate D2E/DX2                !
 ! D9    D(1,3,13,12)            0.0            estimate D2E/DX2                !
 ! D10   D(4,3,13,12)          180.0            estimate D2E/DX2                !
 ! D11   D(1,5,6,10)             0.0            estimate D2E/DX2                !
 ! D12   D(7,5,6,10)           180.0            estimate D2E/DX2                !
 ! D13   D(5,6,10,8)             0.0            estimate D2E/DX2                !
 ! D14   D(5,6,10,11)          180.0            estimate D2E/DX2                !
 ! D15   D(9,8,10,6)           180.0            estimate D2E/DX2                !
 ! D16   D(9,8,10,11)            0.0            estimate D2E/DX2                !
 ! D17   D(12,8,10,6)            0.0            estimate D2E/DX2                !
 ! D18   D(12,8,10,11)         180.0            estimate D2E/DX2                !
 ! D19   D(9,8,12,13)          180.0            estimate D2E/DX2                !
 ! D20   D(9,8,12,14)            0.0            estimate D2E/DX2                !
 ! D21   D(10,8,12,13)           0.0            estimate D2E/DX2                !
 ! D22   D(10,8,12,14)         180.0            estimate D2E/DX2                !
 ! D23   D(8,12,13,3)            0.0            estimate D2E/DX2                !
 ! D24   D(14,12,13,3)         180.0            estimate D2E/DX2                !
 --------------------------------------------------------------------------------
 Trust Radius=3.00D-01 FncErr=1.00D-07 GrdErr=1.00D-07
 Number of steps in this run=  68 maximum allowed number of steps= 100.
 GradGradGradGradGradGradGradGradGradGradGradGradGradGradGradGradGradGrad

 Leave Link  103 at Fri Sep  6 15:47:53 2019, MaxMem= 4294967296 cpu:       0.1
 (Enter /opt/g09gh/gaussian/g09/l202.exe)
                          Input orientation:                          
 ---------------------------------------------------------------------
 Center     Atomic      Atomic             Coordinates (Angstroms)
 Number     Number       Type             X           Y           Z
 ---------------------------------------------------------------------
      1          6           0        1.694983   -0.130519    0.000000
      2          1           0        2.806336   -0.216097    0.000000
      3          7           0        1.099059   -1.294913    0.000000
      4          1           0        1.820895   -2.014784    0.000000
      5          7           0        1.372863    1.168008    0.000000
      6          1           0        0.352126    1.465330    0.000000
      7          1           0        2.165816    1.795031    0.000000
      8          6           0       -1.694983    0.130519    0.000000
      9          1           0       -2.806336    0.216097    0.000000
     10          7           0       -1.099059    1.294913    0.000000
     11          1           0       -1.820895    2.014784    0.000000
     12          7           0       -1.372863   -1.168008    0.000000
     13          1           0       -0.352126   -1.465330    0.000000
     14          1           0       -2.165816   -1.795031    0.000000
 ---------------------------------------------------------------------
                    Distance matrix (angstroms):
                    1          2          3          4          5
     1  C    0.000000
     2  H    1.114643   0.000000
     3  N    1.308028   2.019564   0.000000
     4  H    1.888468   2.050944   1.019442   0.000000
     5  N    1.337884   1.992634   2.478094   3.214172   0.000000
     6  H    2.085665   2.974952   2.859519   3.777364   1.063158
     7  H    1.982278   2.110664   3.268902   3.825397   1.010906
     8  C    3.400001   4.514644   3.136642   4.118703   3.238528
     9  H    4.514644   5.629288   4.187512   5.136934   4.286239
    10  N    3.136642   4.187512   3.396898   4.413640   2.475177
    11  H    4.118703   5.136934   4.413640   5.431395   3.304106
    12  N    3.238528   4.286239   2.475177   3.304106   3.604995
    13  H    2.443844   3.396537   1.461157   2.241410   3.148024
    14  H    4.204327   5.216831   3.302957   3.992763   4.615393
                    6          7          8          9         10
     6  H    0.000000
     7  H    1.843414   0.000000
     8  C    2.443844   4.204327   0.000000
     9  H    3.396537   5.216831   1.114643   0.000000
    10  N    1.461157   3.302957   1.308028   2.019564   0.000000
    11  H    2.241410   3.992763   1.888468   2.050944   1.019442
    12  N    3.148024   4.615393   1.337884   1.992634   2.478094
    13  H    3.014090   4.119464   2.085665   2.974952   2.859519
    14  H    4.119464   5.625974   1.982278   2.110664   3.268902
                   11         12         13         14
    11  H    0.000000
    12  N    3.214172   0.000000
    13  H    3.777364   1.063158   0.000000
    14  H    3.825397   1.010906   1.843414   0.000000
 Symmetry turned off by external request.
 Stoichiometry    C2H8N4
 Framework group  C2H[SGH(C2H8N4)]
 Deg. of freedom    13
 Full point group                 C2H     NOp   4
 Rotational constants (GHZ):      4.8280421      2.6906523      1.7277711
 Mismatch for IA=    1 IOp=  2 Frag= 1 JA=    8 Frag= 2
 Mismatch for IA=    2 IOp=  2 Frag= 1 JA=    9 Frag= 2
 Mismatch for IA=    3 IOp=  2 Frag= 1 JA=   10 Frag= 2
 Mismatch for IA=    4 IOp=  2 Frag= 1 JA=   11 Frag= 2
 Mismatch for IA=    5 IOp=  2 Frag= 1 JA=   12 Frag= 2
 Mismatch for IA=    6 IOp=  2 Frag= 1 JA=   13 Frag= 2
 Mismatch for IA=    7 IOp=  2 Frag= 1 JA=   14 Frag= 2
 Mismatch for IA=    8 IOp=  2 Frag= 2 JA=    1 Frag= 1
 Mismatch for IA=    9 IOp=  2 Frag= 2 JA=    2 Frag= 1
 Mismatch for IA=   10 IOp=  2 Frag= 2 JA=    3 Frag= 1
 Mismatch for IA=   11 IOp=  2 Frag= 2 JA=    4 Frag= 1
 Mismatch for IA=   12 IOp=  2 Frag= 2 JA=    5 Frag= 1
 Mismatch for IA=   13 IOp=  2 Frag= 2 JA=    6 Frag= 1
 Mismatch for IA=   14 IOp=  2 Frag= 2 JA=    7 Frag= 1
 Symmetry turned off in CkCPSy: fragments do not conform to real system point group.
 Leave Link  202 at Fri Sep  6 15:47:53 2019, MaxMem= 4294967296 cpu:       0.1
 (Enter /opt/g09gh/gaussian/g09/l122.exe)
 Leave Link  122 at Fri Sep  6 15:47:53 2019, MaxMem= 4294967296 cpu:       0.0
 (Enter /opt/g09gh/gaussian/g09/l301.exe)
 Standard basis: CC-pVTZ (5D, 7F)
 Ernie: Thresh=  0.10000D-02 Tol=  0.10000D-05 Strict=F.
 Ernie:  18 primitive shells out of 220 were deleted.
 Integral buffers will be    131072 words long.
 Raffenetti 1 integral format.
 Two-electron integral symmetry is turned off.
   292 basis functions,   448 primitive gaussians,   330 cartesian basis functions
    24 alpha electrons       24 beta electrons
       nuclear repulsion energy       239.2604697439 Hartrees.
 IExCor=    0 DFT=F Ex=HF Corr=None ExCW=0 ScaHFX=  1.000000
 ScaDFX=  1.000000  1.000000  1.000000  1.000000 ScalE2=  1.000000  1.000000
 IRadAn=      0 IRanWt=     -1 IRanGd=            0 ICorTp=0
 NAtoms=   14 NActive=   14 NUniq=   14 SFac= 7.50D-01 NAtFMM=   80 NAOKFM=F Big=F
 Leave Link  301 at Fri Sep  6 15:47:53 2019, MaxMem= 4294967296 cpu:       0.5
 (Enter /opt/g09gh/gaussian/g09/l302.exe)
 NPDir=0 NMtPBC=     1 NCelOv=     1 NCel=       1 NClECP=     1 NCelD=      1
         NCelK=      1 NCelE2=     1 NClLst=     1 CellRange=     0.0.
 One-electron integrals computed using PRISM.
 NBasis=   292 RedAO= T  NBF=   292
 NBsUse=   292 1.00D-06 NBFU=   292
 Leave Link  302 at Fri Sep  6 15:47:54 2019, MaxMem= 4294967296 cpu:       2.0
 (Enter /opt/g09gh/gaussian/g09/l303.exe)
 DipDrv:  MaxL=1.
 Leave Link  303 at Fri Sep  6 15:47:54 2019, MaxMem= 4294967296 cpu:       0.4
 (Enter /opt/g09gh/gaussian/g09/l401.exe)
 Harris functional with IExCor=  205 diagonalized for initial guess.
 ExpMin= 1.03D-01 ExpMax= 1.14D+04 ExpMxC= 3.89D+02 IAcc=1 IRadAn=         1 AccDes= 0.00D+00
 HarFok:  IExCor=  205 AccDes= 0.00D+00 IRadAn=         1 IDoV= 1
 ScaDFX=  1.000000  1.000000  1.000000  1.000000
 FoFCou: FMM=F IPFlag=           0 FMFlag=      100000 FMFlg1=           0
         NFxFlg=           0 DoJE=T BraDBF=F KetDBF=T FulRan=T
         Omega=  0.000000  0.000000  1.000000  0.000000  0.000000 ICntrl=     500 IOpCl=  0
         NMat0=    1 NMatS0=    1 NMatT0=    0 NMatD0=    1 NMtDS0=    0 NMtDT0=    0
         I1Cent=           4 NGrid=           0.
 Symmetry not used in FoFCou.
 Harris En= -298.752078155402    
 Leave Link  401 at Fri Sep  6 15:47:54 2019, MaxMem= 4294967296 cpu:       3.7
 (Enter /opt/g09gh/gaussian/g09/l502.exe)
 Closed shell SCF:
 Requested convergence on RMS density matrix=1.00D-08 within  64 cycles.
 Requested convergence on MAX density matrix=1.00D-06.
 Requested convergence on             energy=1.00D-06.
 No special actions if energy rises.
 Using DIIS extrapolation, IDIIS=  1040.
 Two-electron integral symmetry not used.
 Keep R1 ints in memory in canonical form, NReq=1509895500.
 IEnd=      336886 IEndB=      336886 NGot=  4294967296 MDV=  2803317417
 LenX=  2803317417 LenY=  2803208076
 Symmetry not used in FoFDir.
 MinBra= 0 MaxBra= 3 Meth= 1.
 IRaf=       0 NMat=   1 IRICut=       1 DoRegI=T DoRafI=F ISym2E= 0 JSym2E=0.

 Cycle   1  Pass 1  IDiag  1:
 E= -297.884736940605    
 DIIS: error= 5.41D-02 at cycle   1 NSaved=   1.
 NSaved= 1 IEnMin= 1 EnMin= -297.884736940605     IErMin= 1 ErrMin= 5.41D-02
 ErrMax= 5.41D-02 EMaxC= 1.00D-01 BMatC= 6.81D-01 BMatP= 6.81D-01
 IDIUse=3 WtCom= 4.59D-01 WtEn= 5.41D-01
 Coeff-Com:  0.100D+01
 Coeff-En:   0.100D+01
 Coeff:      0.100D+01
 Gap=     0.514 Goal=   None    Shift=    0.000
 GapD=    0.514 DampG=2.000 DampE=0.500 DampFc=1.0000 IDamp=-1.
 RMSDP=2.06D-03 MaxDP=7.65D-02              OVMax= 1.33D-01

 Cycle   2  Pass 1  IDiag  1:
 E= -298.159082124455     Delta-E=       -0.274345183850 Rises=F Damp=F
 DIIS: error= 1.84D-02 at cycle   2 NSaved=   2.
 NSaved= 2 IEnMin= 2 EnMin= -298.159082124455     IErMin= 2 ErrMin= 1.84D-02
 ErrMax= 1.84D-02 EMaxC= 1.00D-01 BMatC= 9.35D-02 BMatP= 6.81D-01
 IDIUse=3 WtCom= 8.16D-01 WtEn= 1.84D-01
 Coeff-Com:  0.209D+00 0.791D+00
 Coeff-En:   0.000D+00 0.100D+01
 Coeff:      0.171D+00 0.829D+00
 Gap=     0.509 Goal=   None    Shift=    0.000
 RMSDP=1.05D-03 MaxDP=4.02D-02 DE=-2.74D-01 OVMax= 5.80D-02

 Cycle   3  Pass 1  IDiag  1:
 E= -298.226013696600     Delta-E=       -0.066931572145 Rises=F Damp=F
 DIIS: error= 6.30D-03 at cycle   3 NSaved=   3.
 NSaved= 3 IEnMin= 3 EnMin= -298.226013696600     IErMin= 3 ErrMin= 6.30D-03
 ErrMax= 6.30D-03 EMaxC= 1.00D-01 BMatC= 8.59D-03 BMatP= 9.35D-02
 IDIUse=3 WtCom= 9.37D-01 WtEn= 6.30D-02
 Coeff-Com: -0.262D-01 0.196D+00 0.830D+00
 Coeff-En:   0.000D+00 0.000D+00 0.100D+01
 Coeff:     -0.245D-01 0.183D+00 0.841D+00
 Gap=     0.475 Goal=   None    Shift=    0.000
 RMSDP=1.79D-04 MaxDP=6.68D-03 DE=-6.69D-02 OVMax= 1.56D-02

 Cycle   4  Pass 1  IDiag  1:
 E= -298.232580644935     Delta-E=       -0.006566948335 Rises=F Damp=F
 DIIS: error= 1.27D-03 at cycle   4 NSaved=   4.
 NSaved= 4 IEnMin= 4 EnMin= -298.232580644935     IErMin= 4 ErrMin= 1.27D-03
 ErrMax= 1.27D-03 EMaxC= 1.00D-01 BMatC= 1.77D-04 BMatP= 8.59D-03
 IDIUse=3 WtCom= 9.87D-01 WtEn= 1.27D-02
 Coeff-Com: -0.739D-02 0.236D-01 0.157D+00 0.827D+00
 Coeff-En:   0.000D+00 0.000D+00 0.000D+00 0.100D+01
 Coeff:     -0.730D-02 0.233D-01 0.155D+00 0.829D+00
 Gap=     0.476 Goal=   None    Shift=    0.000
 RMSDP=5.09D-05 MaxDP=1.40D-03 DE=-6.57D-03 OVMax= 4.65D-03

 Cycle   5  Pass 1  IDiag  1:
 E= -298.232794794386     Delta-E=       -0.000214149451 Rises=F Damp=F
 DIIS: error= 3.83D-04 at cycle   5 NSaved=   5.
 NSaved= 5 IEnMin= 5 EnMin= -298.232794794386     IErMin= 5 ErrMin= 3.83D-04
 ErrMax= 3.83D-04 EMaxC= 1.00D-01 BMatC= 3.42D-05 BMatP= 1.77D-04
 IDIUse=3 WtCom= 9.96D-01 WtEn= 3.83D-03
 Coeff-Com:  0.234D-02-0.224D-01-0.961D-01 0.150D+00 0.966D+00
 Coeff-En:   0.000D+00 0.000D+00 0.000D+00 0.000D+00 0.100D+01
 Coeff:      0.233D-02-0.223D-01-0.958D-01 0.149D+00 0.966D+00
 Gap=     0.476 Goal=   None    Shift=    0.000
 RMSDP=2.24D-05 MaxDP=6.11D-04 DE=-2.14D-04 OVMax= 2.26D-03

 Cycle   6  Pass 1  IDiag  1:
 E= -298.232849052823     Delta-E=       -0.000054258438 Rises=F Damp=F
 DIIS: error= 1.38D-04 at cycle   6 NSaved=   6.
 NSaved= 6 IEnMin= 6 EnMin= -298.232849052823     IErMin= 6 ErrMin= 1.38D-04
 ErrMax= 1.38D-04 EMaxC= 1.00D-01 BMatC= 3.06D-06 BMatP= 3.42D-05
 IDIUse=3 WtCom= 9.99D-01 WtEn= 1.38D-03
 Coeff-Com:  0.113D-02-0.559D-02-0.302D-01-0.775D-01 0.907D-01 0.102D+01
 Coeff-En:   0.000D+00 0.000D+00 0.000D+00 0.000D+00 0.000D+00 0.100D+01
 Coeff:      0.113D-02-0.558D-02-0.302D-01-0.774D-01 0.905D-01 0.102D+01
 Gap=     0.476 Goal=   None    Shift=    0.000
 RMSDP=9.08D-06 MaxDP=2.44D-04 DE=-5.43D-05 OVMax= 8.12D-04

 Cycle   7  Pass 1  IDiag  1:
 E= -298.232855973144     Delta-E=       -0.000006920321 Rises=F Damp=F
 DIIS: error= 5.17D-05 at cycle   7 NSaved=   7.
 NSaved= 7 IEnMin= 7 EnMin= -298.232855973144     IErMin= 7 ErrMin= 5.17D-05
 ErrMax= 5.17D-05 EMaxC= 1.00D-01 BMatC= 2.75D-07 BMatP= 3.06D-06
 IDIUse=1 WtCom= 1.00D+00 WtEn= 0.00D+00
 Coeff-Com: -0.232D-03 0.243D-02 0.109D-01-0.150D-01-0.835D-01-0.334D-01
 Coeff-Com:  0.112D+01
 Coeff:     -0.232D-03 0.243D-02 0.109D-01-0.150D-01-0.835D-01-0.334D-01
 Coeff:      0.112D+01
 Gap=     0.476 Goal=   None    Shift=    0.000
 RMSDP=3.04D-06 MaxDP=1.26D-04 DE=-6.92D-06 OVMax= 4.22D-04

 Cycle   8  Pass 1  IDiag  1:
 E= -298.232856861881     Delta-E=       -0.000000888737 Rises=F Damp=F
 DIIS: error= 1.67D-05 at cycle   8 NSaved=   8.
 NSaved= 8 IEnMin= 8 EnMin= -298.232856861881     IErMin= 8 ErrMin= 1.67D-05
 ErrMax= 1.67D-05 EMaxC= 1.00D-01 BMatC= 6.04D-08 BMatP= 2.75D-07
 IDIUse=1 WtCom= 1.00D+00 WtEn= 0.00D+00
 Coeff-Com: -0.194D-03 0.124D-02 0.590D-02 0.415D-02-0.231D-01-0.155D+00
 Coeff-Com:  0.197D+00 0.970D+00
 Coeff:     -0.194D-03 0.124D-02 0.590D-02 0.415D-02-0.231D-01-0.155D+00
 Coeff:      0.197D+00 0.970D+00
 Gap=     0.476 Goal=   None    Shift=    0.000
 RMSDP=1.26D-06 MaxDP=4.77D-05 DE=-8.89D-07 OVMax= 1.66D-04

 Cycle   9  Pass 1  IDiag  1:
 E= -298.232856996244     Delta-E=       -0.000000134363 Rises=F Damp=F
 DIIS: error= 6.75D-06 at cycle   9 NSaved=   9.
 NSaved= 9 IEnMin= 9 EnMin= -298.232856996244     IErMin= 9 ErrMin= 6.75D-06
 ErrMax= 6.75D-06 EMaxC= 1.00D-01 BMatC= 5.03D-09 BMatP= 6.04D-08
 IDIUse=1 WtCom= 1.00D+00 WtEn= 0.00D+00
 Coeff-Com:  0.302D-04-0.281D-03-0.142D-02 0.560D-03 0.146D-01 0.361D-02
 Coeff-Com: -0.122D+00-0.593D-01 0.116D+01
 Coeff:      0.302D-04-0.281D-03-0.142D-02 0.560D-03 0.146D-01 0.361D-02
 Coeff:     -0.122D+00-0.593D-01 0.116D+01
 Gap=     0.476 Goal=   None    Shift=    0.000
 RMSDP=4.35D-07 MaxDP=1.81D-05 DE=-1.34D-07 OVMax= 7.63D-05

 Cycle  10  Pass 1  IDiag  1:
 E= -298.232857013269     Delta-E=       -0.000000017026 Rises=F Damp=F
 DIIS: error= 2.25D-06 at cycle  10 NSaved=  10.
 NSaved=10 IEnMin=10 EnMin= -298.232857013269     IErMin=10 ErrMin= 2.25D-06
 ErrMax= 2.25D-06 EMaxC= 1.00D-01 BMatC= 7.97D-10 BMatP= 5.03D-09
 IDIUse=1 WtCom= 1.00D+00 WtEn= 0.00D+00
 Coeff-Com:  0.959D-05-0.354D-04-0.701D-04-0.149D-02-0.149D-02 0.141D-01
 Coeff-Com:  0.333D-01-0.971D-01-0.492D+00 0.155D+01
 Coeff:      0.959D-05-0.354D-04-0.701D-04-0.149D-02-0.149D-02 0.141D-01
 Coeff:      0.333D-01-0.971D-01-0.492D+00 0.155D+01
 Gap=     0.476 Goal=   None    Shift=    0.000
 RMSDP=2.26D-07 MaxDP=7.94D-06 DE=-1.70D-08 OVMax= 3.78D-05

 Cycle  11  Pass 1  IDiag  1:
 E= -298.232857016402     Delta-E=       -0.000000003133 Rises=F Damp=F
 DIIS: error= 5.17D-07 at cycle  11 NSaved=  11.
 NSaved=11 IEnMin=11 EnMin= -298.232857016402     IErMin=11 ErrMin= 5.17D-07
 ErrMax= 5.17D-07 EMaxC= 1.00D-01 BMatC= 4.72D-11 BMatP= 7.97D-10
 IDIUse=1 WtCom= 1.00D+00 WtEn= 0.00D+00
 Coeff-Com: -0.553D-05 0.377D-04 0.174D-03 0.303D-03-0.606D-03-0.594D-02
 Coeff-Com:  0.238D-02 0.422D-01 0.234D-01-0.455D+00 0.139D+01
 Coeff:     -0.553D-05 0.377D-04 0.174D-03 0.303D-03-0.606D-03-0.594D-02
 Coeff:      0.238D-02 0.422D-01 0.234D-01-0.455D+00 0.139D+01
 Gap=     0.476 Goal=   None    Shift=    0.000
 RMSDP=6.12D-08 MaxDP=1.99D-06 DE=-3.13D-09 OVMax= 8.96D-06

 Cycle  12  Pass 1  IDiag  1:
 E= -298.232857016575     Delta-E=       -0.000000000173 Rises=F Damp=F
 DIIS: error= 7.59D-08 at cycle  12 NSaved=  12.
 NSaved=12 IEnMin=12 EnMin= -298.232857016575     IErMin=12 ErrMin= 7.59D-08
 ErrMax= 7.59D-08 EMaxC= 1.00D-01 BMatC= 1.22D-12 BMatP= 4.72D-11
 IDIUse=1 WtCom= 1.00D+00 WtEn= 0.00D+00
 Coeff-Com:  0.674D-06-0.637D-05-0.331D-04-0.299D-04 0.225D-03 0.791D-03
 Coeff-Com: -0.208D-02-0.469D-02 0.131D-01 0.414D-01-0.333D+00 0.128D+01
 Coeff:      0.674D-06-0.637D-05-0.331D-04-0.299D-04 0.225D-03 0.791D-03
 Coeff:     -0.208D-02-0.469D-02 0.131D-01 0.414D-01-0.333D+00 0.128D+01
 Gap=     0.476 Goal=   None    Shift=    0.000
 RMSDP=1.01D-08 MaxDP=2.63D-07 DE=-1.73D-10 OVMax= 9.47D-07

 Cycle  13  Pass 1  IDiag  1:
 E= -298.232857016584     Delta-E=       -0.000000000009 Rises=F Damp=F
 DIIS: error= 1.04D-08 at cycle  13 NSaved=  13.
 NSaved=13 IEnMin=13 EnMin= -298.232857016584     IErMin=13 ErrMin= 1.04D-08
 ErrMax= 1.04D-08 EMaxC= 1.00D-01 BMatC= 2.68D-14 BMatP= 1.22D-12
 IDIUse=1 WtCom= 1.00D+00 WtEn= 0.00D+00
 Coeff-Com:  0.113D-07 0.194D-06 0.204D-05-0.369D-05-0.245D-04 0.725D-05
 Coeff-Com:  0.268D-03-0.301D-04-0.274D-02 0.185D-02 0.319D-01-0.249D+00
 Coeff-Com:  0.122D+01
 Coeff:      0.113D-07 0.194D-06 0.204D-05-0.369D-05-0.245D-04 0.725D-05
 Coeff:      0.268D-03-0.301D-04-0.274D-02 0.185D-02 0.319D-01-0.249D+00
 Coeff:      0.122D+01
 Gap=     0.476 Goal=   None    Shift=    0.000
 RMSDP=1.62D-09 MaxDP=4.82D-08 DE=-8.53D-12 OVMax= 9.27D-08

 SCF Done:  E(RHF) =  -298.232857017     A.U. after   13 cycles
             Convg  =    0.1618D-08             -V/T =  2.0011
 KE= 2.979197835083D+02 PE=-1.177918296329D+03 EE= 3.425051860600D+02
 Leave Link  502 at Fri Sep  6 15:48:45 2019, MaxMem= 4294967296 cpu:     407.0
 (Enter /opt/g09gh/gaussian/g09/l801.exe)
 ExpMin= 1.03D-01 ExpMax= 1.14D+04 ExpMxC= 3.89D+02 IAcc=1 IRadAn=         1 AccDes= 0.00D+00
 HarFok:  IExCor=  205 AccDes= 0.00D+00 IRadAn=         1 IDoV=-2
 ScaDFX=  1.000000  1.000000  1.000000  1.000000
 Largest valence mixing into a core orbital is  2.14D-04
 Largest core mixing into a valence orbital is  3.93D-05
 Range of M.O.s used for correlation:     7   292
 NBasis=   292 NAE=    24 NBE=    24 NFC=     6 NFV=     0
 NROrb=    286 NOA=    18 NOB=    18 NVA=   268 NVB=   268
 Leave Link  801 at Fri Sep  6 15:48:45 2019, MaxMem= 4294967296 cpu:       0.4
 (Enter /opt/g09gh/gaussian/g09/l906.exe)
 Frozen-core derivative calculation, NFC=   6 NFV=   0.
 FulOut=F Deriv=T AODrv=T NAtomX=    14
   MMem=         247  MDisk=          18 MDiskD=          18
  W3Min=     2312640 MinDsk=     3597335 NBas6D=         330
 NBas2D=       55287    NTT=       54615    LW2=     3500000
    MDV=  4293971586 MDiskM=       65029 NBas2p=       52305
 Fully direct method using O(ONN) memory.
 IMap=   1   2   3   4   5   6   7   8   9  10  11  12  13  14  15  16  17  18  19  20
 IMap=  21  22  23  24
 JobTyp=1 Pass  1:  I=   7 to  24 NPSUse=  8 ParTrn=T ParDer=T DoDerP=T.
 Spin components of T(2) and E(2):
     alpha-alpha T2 =       0.4594437941D-01 E2=     -0.1476039508D+00
     alpha-beta  T2 =       0.2591507034D+00 E2=     -0.8940945525D+00
     beta-beta   T2 =       0.4594437941D-01 E2=     -0.1476039508D+00
 The integrals were generated   1 times.
 ANorm=    0.1162342231D+01
 E2 =    -0.1189302454D+01 EUMP2 =    -0.29942215947060D+03
 Leave Link  906 at Fri Sep  6 15:50:05 2019, MaxMem= 4294967296 cpu:     636.2
 (Enter /opt/g09gh/gaussian/g09/l1002.exe)
 Minotr:  Closed shell wavefunction.
          Computing MP2/KS-MP2 derivatives.
          Using Z-Vector for PSCF gradient.
          Skipping F1 and S1 gradient terms here.
          IDoAtm=11111111111111
          Frozen-core window.
          Direct CPHF calculation.
          Differentiating once with respect to electric field.
                with respect to dipole field.
          Differentiating once with respect to nuclear coordinates.
          Requested convergence is 1.0D-10 RMS, and 1.0D-09 maximum.
          NewPWx=F KeepS1=T KeepF1=T KeepIn=T MapXYZ=F SortEE=F KeepMc=T.
          MDV=    4294967152 using IRadAn=       0.
          Keep R1 ints in memory in canonical form, NReq=1493368399.
 Symmetry not used in FoFDir.
 MinBra= 0 MaxBra= 3 Meth= 1.
 IRaf=       0 NMat=   1 IRICut=       1 DoRegI=T DoRafI=F ISym2E= 0 JSym2E=0.
          Solving linear equations separately, MaxMat=       0.
          There are     1 degrees of freedom in the 1st order CPHF.  IDoFFX=0.
 LinEq1:  Iter=  0 NonCon=     1 RMS=3.49D-03 Max=1.44D-01
 AX will form     1 AO Fock derivatives at one time.
 LinEq1:  Iter=  1 NonCon=     1 RMS=8.99D-04 Max=1.36D-02
 LinEq1:  Iter=  2 NonCon=     1 RMS=3.17D-04 Max=8.52D-03
 LinEq1:  Iter=  3 NonCon=     1 RMS=8.19D-05 Max=1.36D-03
 LinEq1:  Iter=  4 NonCon=     1 RMS=3.44D-05 Max=7.90D-04
 LinEq1:  Iter=  5 NonCon=     1 RMS=9.79D-06 Max=2.15D-04
 LinEq1:  Iter=  6 NonCon=     1 RMS=3.02D-06 Max=9.01D-05
 LinEq1:  Iter=  7 NonCon=     1 RMS=9.82D-07 Max=2.14D-05
 LinEq1:  Iter=  8 NonCon=     1 RMS=4.07D-07 Max=1.23D-05
 LinEq1:  Iter=  9 NonCon=     1 RMS=9.22D-08 Max=1.68D-06
 LinEq1:  Iter= 10 NonCon=     1 RMS=1.51D-08 Max=2.49D-07
 LinEq1:  Iter= 11 NonCon=     1 RMS=1.89D-09 Max=4.30D-08
 LinEq1:  Iter= 12 NonCon=     1 RMS=2.84D-10 Max=6.55D-09
 LinEq1:  Iter= 13 NonCon=     0 RMS=3.64D-11 Max=7.00D-10
 Linear equations converged to 1.000D-10 1.000D-09 after    13 iterations.
 End of Minotr Frequency-dependent properties file   721 does not exist.
 End of Minotr Frequency-dependent properties file   722 does not exist.
 Leave Link 1002 at Fri Sep  6 15:51:02 2019, MaxMem= 4294967296 cpu:     458.7
 (Enter /opt/g09gh/gaussian/g09/l601.exe)
 Copying SCF densities to generalized density rwf, IOpCl= 0 IROHF=0.

 **********************************************************************

            Population analysis using the SCF density.

 **********************************************************************

 Alpha  occ. eigenvalues --  -15.53680 -15.53680 -15.51190 -15.51190 -11.31222
 Alpha  occ. eigenvalues --  -11.31221  -1.24304  -1.22059  -1.14876  -1.12120
 Alpha  occ. eigenvalues --   -0.82566  -0.77647  -0.73567  -0.71587  -0.66326
 Alpha  occ. eigenvalues --   -0.62083  -0.61929  -0.55403  -0.51879  -0.49757
 Alpha  occ. eigenvalues --   -0.44196  -0.36653  -0.36439  -0.33834
 Alpha virt. eigenvalues --    0.13801   0.14647   0.17505   0.18930   0.19371
 Alpha virt. eigenvalues --    0.21100   0.21879   0.23852   0.28363   0.31076
 Alpha virt. eigenvalues --    0.38455   0.39638   0.41216   0.42802   0.44977
 Alpha virt. eigenvalues --    0.48283   0.49215   0.52166   0.53143   0.57119
 Alpha virt. eigenvalues --    0.58307   0.59528   0.60671   0.61048   0.61944
 Alpha virt. eigenvalues --    0.62098   0.65140   0.68183   0.68501   0.71387
 Alpha virt. eigenvalues --    0.73856   0.74782   0.75228   0.76348   0.76594
 Alpha virt. eigenvalues --    0.78088   0.79089   0.81910   0.84640   0.85551
 Alpha virt. eigenvalues --    0.87578   0.90795   0.93736   0.94986   0.99370
 Alpha virt. eigenvalues --    1.00248   1.00293   1.00636   1.02944   1.04732
 Alpha virt. eigenvalues --    1.07055   1.09250   1.10344   1.13489   1.13624
 Alpha virt. eigenvalues --    1.18038   1.19294   1.19657   1.21593   1.23432
 Alpha virt. eigenvalues --    1.25004   1.25785   1.29274   1.29314   1.31216
 Alpha virt. eigenvalues --    1.33489   1.45853   1.52849   1.55620   1.58150
 Alpha virt. eigenvalues --    1.61468   1.61719   1.62224   1.62395   1.63477
 Alpha virt. eigenvalues --    1.64772   1.64976   1.71655   1.75136   1.77376
 Alpha virt. eigenvalues --    1.82499   1.85657   1.86570   1.90186   1.90636
 Alpha virt. eigenvalues --    1.92156   1.93302   2.00107   2.00728   2.00906
 Alpha virt. eigenvalues --    2.04713   2.12163   2.13890   2.14133   2.19539
 Alpha virt. eigenvalues --    2.21262   2.36651   2.39601   2.42646   2.43068
 Alpha virt. eigenvalues --    2.46557   2.50493   2.58723   2.74218   2.75990
 Alpha virt. eigenvalues --    2.83311   2.87619   2.91453   2.92541   2.94822
 Alpha virt. eigenvalues --    2.95155   2.98496   2.98682   2.99330   3.02017
 Alpha virt. eigenvalues --    3.11045   3.15656   3.16829   3.19530   3.24484
 Alpha virt. eigenvalues --    3.25806   3.27117   3.28577   3.32305   3.32841
 Alpha virt. eigenvalues --    3.33379   3.35725   3.37659   3.40187   3.40211
 Alpha virt. eigenvalues --    3.40870   3.41960   3.44344   3.45000   3.46403
 Alpha virt. eigenvalues --    3.49173   3.57867   3.57893   3.59513   3.60725
 Alpha virt. eigenvalues --    3.61609   3.63600   3.68672   3.69528   3.69554
 Alpha virt. eigenvalues --    3.70634   3.73485   3.74557   3.80731   3.83812
 Alpha virt. eigenvalues --    3.84577   3.85313   3.86831   3.88373   3.88737
 Alpha virt. eigenvalues --    3.89238   3.94300   3.95087   3.96691   3.98757
 Alpha virt. eigenvalues --    4.00360   4.02525   4.02782   4.03579   4.08603
 Alpha virt. eigenvalues --    4.09124   4.10099   4.10354   4.11908   4.13836
 Alpha virt. eigenvalues --    4.15774   4.20146   4.23116   4.23448   4.24436
 Alpha virt. eigenvalues --    4.24995   4.34713   4.35041   4.37550   4.39982
 Alpha virt. eigenvalues --    4.40605   4.42780   4.43749   4.45688   4.46297
 Alpha virt. eigenvalues --    4.47328   4.51708   4.53014   4.53971   4.54591
 Alpha virt. eigenvalues --    4.62112   4.62688   4.70080   4.73057   4.79139
 Alpha virt. eigenvalues --    4.82489   4.88739   4.88874   4.91649   4.92329
 Alpha virt. eigenvalues --    4.95202   4.96491   4.98881   5.02938   5.04608
 Alpha virt. eigenvalues --    5.05896   5.11370   5.16156   5.17081   5.19464
 Alpha virt. eigenvalues --    5.23391   5.25320   5.25874   5.29550   5.30345
 Alpha virt. eigenvalues --    5.30928   5.31370   5.36862   5.37231   5.40738
 Alpha virt. eigenvalues --    5.41089   5.45459   5.47990   5.54894   5.63199
 Alpha virt. eigenvalues --    5.63763   5.65415   5.71692   5.74558   5.76606
 Alpha virt. eigenvalues --    5.83166   5.83727   5.89992   5.92478   5.93697
 Alpha virt. eigenvalues --    5.97933   6.00846   6.00953   6.04607   6.09347
 Alpha virt. eigenvalues --    6.12205   6.15764   6.16221   6.22488   6.26748
 Alpha virt. eigenvalues --    6.32361   6.33543   6.33926   6.43640   6.46197
 Alpha virt. eigenvalues --    6.61863   6.65584   6.75251   6.77985   6.96225
 Alpha virt. eigenvalues --    7.00274   7.25141   7.28608   7.35451   7.56573
 Alpha virt. eigenvalues --    7.67058   7.77460  10.45086  10.81494  13.79843
 Alpha virt. eigenvalues --   13.95176  14.79062  14.89456
          Condensed to atoms (all electrons):
              1          2          3          4          5          6
     1  C    4.458408   0.443454   0.583405  -0.034844   0.472878  -0.020939
     2  H    0.443454   0.652930  -0.054217  -0.028931  -0.078835   0.005041
     3  N    0.583405  -0.054217   6.648165   0.334188  -0.068266  -0.002708
     4  H   -0.034844  -0.028931   0.334188   0.575608   0.007807  -0.000050
     5  N    0.472878  -0.078835  -0.068266   0.007807   6.444774   0.328095
     6  H   -0.020939   0.005041  -0.002708  -0.000050   0.328095   0.351249
     7  H   -0.034974  -0.014553   0.003813  -0.000348   0.380940  -0.023291
     8  C    0.001485  -0.000144  -0.002622   0.000074  -0.000124  -0.008596
     9  H   -0.000144  -0.000030  -0.000930   0.000038  -0.001058   0.003406
    10  N   -0.002622  -0.000930   0.001350   0.000058  -0.153702   0.142292
    11  H    0.000074   0.000038   0.000058  -0.000006   0.007089  -0.012822
    12  N   -0.000124  -0.001058  -0.153702   0.007089   0.004136  -0.003382
    13  H   -0.008596   0.003406   0.142292  -0.012822  -0.003382   0.001403
    14  H    0.000059   0.000043   0.006721  -0.000360  -0.000047  -0.000032
              7          8          9         10         11         12
     1  C   -0.034974   0.001485  -0.000144  -0.002622   0.000074  -0.000124
     2  H   -0.014553  -0.000144  -0.000030  -0.000930   0.000038  -0.001058
     3  N    0.003813  -0.002622  -0.000930   0.001350   0.000058  -0.153702
     4  H   -0.000348   0.000074   0.000038   0.000058  -0.000006   0.007089
     5  N    0.380940  -0.000124  -0.001058  -0.153702   0.007089   0.004136
     6  H   -0.023291  -0.008596   0.003406   0.142292  -0.012822  -0.003382
     7  H    0.513277   0.000059   0.000043   0.006721  -0.000360  -0.000047
     8  C    0.000059   4.458408   0.443454   0.583405  -0.034844   0.472878
     9  H    0.000043   0.443454   0.652930  -0.054217  -0.028931  -0.078835
    10  N    0.006721   0.583405  -0.054217   6.648165   0.334188  -0.068266
    11  H   -0.000360  -0.034844  -0.028931   0.334188   0.575608   0.007807
    12  N   -0.000047   0.472878  -0.078835  -0.068266   0.007807   6.444774
    13  H   -0.000032  -0.020939   0.005041  -0.002708  -0.000050   0.328095
    14  H   -0.000002  -0.034974  -0.014553   0.003813  -0.000348   0.380940
             13         14
     1  C   -0.008596   0.000059
     2  H    0.003406   0.000043
     3  N    0.142292   0.006721
     4  H   -0.012822  -0.000360
     5  N   -0.003382  -0.000047
     6  H    0.001403  -0.000032
     7  H   -0.000032  -0.000002
     8  C   -0.020939  -0.034974
     9  H    0.005041  -0.014553
    10  N   -0.002708   0.003813
    11  H   -0.000050  -0.000348
    12  N    0.328095   0.380940
    13  H    0.351249  -0.023291
    14  H   -0.023291   0.513277
 Mulliken atomic charges:
              1
     1  C    0.142479
     2  H    0.073786
     3  N   -0.437547
     4  H    0.152500
     5  N   -0.340306
     6  H    0.240333
     7  H    0.168754
     8  C    0.142479
     9  H    0.073786
    10  N   -0.437547
    11  H    0.152500
    12  N   -0.340306
    13  H    0.240333
    14  H    0.168754
 Sum of Mulliken atomic charges =   0.00000
 Mulliken charges with hydrogens summed into heavy atoms:
              1
     1  C    0.216266
     3  N   -0.285047
     5  N    0.068781
     8  C    0.216266
    10  N   -0.285047
    12  N    0.068781
 Sum of Mulliken charges with hydrogens summed into heavy atoms =   0.00000
          Condensed to fragments (all electrons):
     1       0.000000
     2       0.000000
 Electronic spatial extent (au):  <R**2>=            685.6342
 Charge=              0.0000 electrons
 Dipole moment (field-independent basis, Debye):
    X=              0.0000    Y=              0.0000    Z=              0.0000  Tot=              0.0000
 Quadrupole moment (field-independent basis, Debye-Ang):
   XX=            -24.2450   YY=            -32.5095   ZZ=            -41.6264
   XY=              1.5286   XZ=              0.0000   YZ=              0.0000
 Traceless Quadrupole moment (field-independent basis, Debye-Ang):
   XX=              8.5486   YY=              0.2841   ZZ=             -8.8328
   XY=              1.5286   XZ=              0.0000   YZ=              0.0000
 Octapole moment (field-independent basis, Debye-Ang**2):
  XXX=              0.0000  YYY=              0.0000  ZZZ=              0.0000  XYY=              0.0000
  XXY=              0.0000  XXZ=              0.0000  XZZ=              0.0000  YZZ=              0.0000
  YYZ=              0.0000  XYZ=              0.0000
 Hexadecapole moment (field-independent basis, Debye-Ang**3):
 XXXX=           -446.0741 YYYY=           -258.4878 ZZZZ=            -40.9900 XXXY=             13.2977
 XXXZ=              0.0000 YYYX=              5.1771 YYYZ=              0.0000 ZZZX=              0.0000
 ZZZY=              0.0000 XXYY=            -92.6682 XXZZ=           -105.4865 YYZZ=            -65.2058
 XXYZ=              0.0000 YYXZ=              0.0000 ZZXY=              0.5090
 N-N= 2.392604697439D+02 E-N=-1.177918296751D+03  KE= 2.979197835083D+02
 No NMR shielding tensors so no spin-rotation constants.
 Leave Link  601 at Fri Sep  6 15:51:02 2019, MaxMem= 4294967296 cpu:       1.6
 (Enter /opt/g09gh/gaussian/g09/l701.exe)
 Compute integral first derivatives.
 ... and contract with generalized density number  2.
 Leave Link  701 at Fri Sep  6 15:51:03 2019, MaxMem= 4294967296 cpu:       1.8
 (Enter /opt/g09gh/gaussian/g09/l702.exe)
 L702 exits ... SP integral derivatives will be done elsewhere.
 Leave Link  702 at Fri Sep  6 15:51:03 2019, MaxMem= 4294967296 cpu:       0.2
 (Enter /opt/g09gh/gaussian/g09/l703.exe)
 Compute integral first derivatives, UseDBF=F ICtDFT=           0.
 Integral derivatives from FoFDir, PRISM(SPDF).
 Calling FoFJK, ICntrl=      2127 FMM=F ISym2X=0 I1Cent= 0 IOpClX= 0 NMat=1 NMatS=1 NMatT=0.
 FoFCou: FMM=F IPFlag=           0 FMFlag=      100000 FMFlg1=         800
         NFxFlg=           0 DoJE=F BraDBF=F KetDBF=F FulRan=T
         Omega=  0.000000  0.000000  1.000000  0.000000  0.000000 ICntrl=    2127 IOpCl=  0
         NMat0=    1 NMatS0=    1 NMatT0=    0 NMatD0=    1 NMtDS0=    0 NMtDT0=    0
         I1Cent=           0 NGrid=           0.
 Symmetry not used in FoFCou.
 Leave Link  703 at Fri Sep  6 15:51:17 2019, MaxMem= 4294967296 cpu:     110.1
 (Enter /opt/g09gh/gaussian/g09/l716.exe)
 Dipole        =-2.08633111D-12-1.42641454D-12 3.29429303D-15
 Cartesian Forces:  Max     0.066693682 RMS     0.015705904
 Leave Link  716 at Fri Sep  6 15:51:17 2019, MaxMem= 4294967296 cpu:       0.4
 (Enter /opt/g09gh/gaussian/g09/l122.exe)
 Counterpoise: doing DCBS calculation for fragment   1 NewBq=T
 Leave Link  122 at Fri Sep  6 15:51:17 2019, MaxMem= 4294967296 cpu:       0.0
 (Enter /opt/g09gh/gaussian/g09/l301.exe)
 Basis read from rwf:  (5D, 7F)
 No pseudopotential information found on rwf file.
 Integral buffers will be    131072 words long.
 Raffenetti 1 integral format.
 Two-electron integral symmetry is turned off.
   292 basis functions,   448 primitive gaussians,   330 cartesian basis functions
    12 alpha electrons       12 beta electrons
       nuclear repulsion energy        71.0297063534 Hartrees.
 IExCor=    0 DFT=F Ex=HF Corr=None ExCW=0 ScaHFX=  1.000000
 ScaDFX=  1.000000  1.000000  1.000000  1.000000 ScalE2=  1.000000  1.000000
 IRadAn=      0 IRanWt=     -1 IRanGd=            0 ICorTp=0
 NAtoms=   14 NActive=   14 NUniq=   14 SFac= 7.50D-01 NAtFMM=   80 NAOKFM=F Big=F
 No density basis found on file   718.
 Leave Link  301 at Fri Sep  6 15:51:17 2019, MaxMem= 4294967296 cpu:       0.7
 (Enter /opt/g09gh/gaussian/g09/l302.exe)
 NPDir=0 NMtPBC=     1 NCelOv=     1 NCel=       1 NClECP=     1 NCelD=      1
         NCelK=      1 NCelE2=     1 NClLst=     1 CellRange=     0.0.
 One-electron integrals computed using PRISM.
 NBasis=   292 RedAO= T  NBF=   292
 NBsUse=   292 1.00D-06 NBFU=   292
 Leave Link  302 at Fri Sep  6 15:51:17 2019, MaxMem= 4294967296 cpu:       2.0
 (Enter /opt/g09gh/gaussian/g09/l303.exe)
 DipDrv:  MaxL=1.
 Leave Link  303 at Fri Sep  6 15:51:17 2019, MaxMem= 4294967296 cpu:       0.4
 (Enter /opt/g09gh/gaussian/g09/l401.exe)
 Harris functional with IExCor=  205 diagonalized for initial guess.
 ExpMin= 1.03D-01 ExpMax= 1.14D+04 ExpMxC= 3.89D+02 IAcc=1 IRadAn=         1 AccDes= 0.00D+00
 HarFok:  IExCor=  205 AccDes= 0.00D+00 IRadAn=         1 IDoV= 1
 ScaDFX=  1.000000  1.000000  1.000000  1.000000
 FoFCou: FMM=F IPFlag=           0 FMFlag=      100000 FMFlg1=           0
         NFxFlg=           0 DoJE=T BraDBF=F KetDBF=T FulRan=T
         Omega=  0.000000  0.000000  1.000000  0.000000  0.000000 ICntrl=     500 IOpCl=  0
         NMat0=    1 NMatS0=    1 NMatT0=    0 NMatD0=    1 NMtDS0=    0 NMtDT0=    0
         I1Cent=           4 NGrid=           0.
 Symmetry not used in FoFCou.
 Harris En= -149.366598776695    
 Leave Link  401 at Fri Sep  6 15:51:18 2019, MaxMem= 4294967296 cpu:       3.7
 (Enter /opt/g09gh/gaussian/g09/l502.exe)
 Closed shell SCF:
 Requested convergence on RMS density matrix=1.00D-08 within  64 cycles.
 Requested convergence on MAX density matrix=1.00D-06.
 Requested convergence on             energy=1.00D-06.
 No special actions if energy rises.
 Using DIIS extrapolation, IDIIS=  1040.
 Two-electron integral symmetry not used.
 Keep R1 ints in memory in canonical form, NReq=1509895500.
 IEnd=      336886 IEndB=      336886 NGot=  4294967296 MDV=  2803317417
 LenX=  2803317417 LenY=  2803208076
 Symmetry not used in FoFDir.
 MinBra= 0 MaxBra= 3 Meth= 1.
 IRaf=       0 NMat=   1 IRICut=       1 DoRegI=T DoRafI=F ISym2E= 0 JSym2E=0.

 Cycle   1  Pass 1  IDiag  1:
 E= -148.925653019738    
 DIIS: error= 2.77D-02 at cycle   1 NSaved=   1.
 NSaved= 1 IEnMin= 1 EnMin= -148.925653019738     IErMin= 1 ErrMin= 2.77D-02
 ErrMax= 2.77D-02 EMaxC= 1.00D-01 BMatC= 3.51D-01 BMatP= 3.51D-01
 IDIUse=3 WtCom= 7.23D-01 WtEn= 2.77D-01
 Coeff-Com:  0.100D+01
 Coeff-En:   0.100D+01
 Coeff:      0.100D+01
 Gap=     0.558 Goal=   None    Shift=    0.000
 GapD=    0.558 DampG=2.000 DampE=0.500 DampFc=1.0000 IDamp=-1.
 RMSDP=1.63D-03 MaxDP=8.69D-02              OVMax= 1.70D-01

 Cycle   2  Pass 1  IDiag  1:
 E= -149.071394384441     Delta-E=       -0.145741364702 Rises=F Damp=F
 DIIS: error= 1.02D-02 at cycle   2 NSaved=   2.
 NSaved= 2 IEnMin= 2 EnMin= -149.071394384441     IErMin= 2 ErrMin= 1.02D-02
 ErrMax= 1.02D-02 EMaxC= 1.00D-01 BMatC= 5.78D-02 BMatP= 3.51D-01
 IDIUse=3 WtCom= 8.98D-01 WtEn= 1.02D-01
 Coeff-Com:  0.233D+00 0.767D+00
 Coeff-En:   0.000D+00 0.100D+01
 Coeff:      0.209D+00 0.791D+00
 Gap=     0.477 Goal=   None    Shift=    0.000
 RMSDP=8.69D-04 MaxDP=5.58D-02 DE=-1.46D-01 OVMax= 7.35D-02

 Cycle   3  Pass 1  IDiag  1:
 E= -149.114117711523     Delta-E=       -0.042723327082 Rises=F Damp=F
 DIIS: error= 2.92D-03 at cycle   3 NSaved=   3.
 NSaved= 3 IEnMin= 3 EnMin= -149.114117711523     IErMin= 3 ErrMin= 2.92D-03
 ErrMax= 2.92D-03 EMaxC= 1.00D-01 BMatC= 4.93D-03 BMatP= 5.78D-02
 IDIUse=3 WtCom= 9.71D-01 WtEn= 2.92D-02
 Coeff-Com: -0.210D-01 0.190D+00 0.831D+00
 Coeff-En:   0.000D+00 0.000D+00 0.100D+01
 Coeff:     -0.204D-01 0.184D+00 0.836D+00
 Gap=     0.453 Goal=   None    Shift=    0.000
 RMSDP=1.40D-04 MaxDP=8.39D-03 DE=-4.27D-02 OVMax= 2.87D-02

 Cycle   4  Pass 1  IDiag  1:
 E= -149.117985591379     Delta-E=       -0.003867879856 Rises=F Damp=F
 DIIS: error= 1.01D-03 at cycle   4 NSaved=   4.
 NSaved= 4 IEnMin= 4 EnMin= -149.117985591379     IErMin= 4 ErrMin= 1.01D-03
 ErrMax= 1.01D-03 EMaxC= 1.00D-01 BMatC= 2.96D-04 BMatP= 4.93D-03
 IDIUse=3 WtCom= 9.90D-01 WtEn= 1.01D-02
 Coeff-Com: -0.128D-01 0.410D-01 0.273D+00 0.699D+00
 Coeff-En:   0.000D+00 0.000D+00 0.000D+00 0.100D+01
 Coeff:     -0.127D-01 0.406D-01 0.270D+00 0.702D+00
 Gap=     0.451 Goal=   None    Shift=    0.000
 RMSDP=4.83D-05 MaxDP=2.34D-03 DE=-3.87D-03 OVMax= 4.86D-03

 Cycle   5  Pass 1  IDiag  1:
 E= -149.118280036191     Delta-E=       -0.000294444811 Rises=F Damp=F
 DIIS: error= 3.38D-04 at cycle   5 NSaved=   5.
 NSaved= 5 IEnMin= 5 EnMin= -149.118280036191     IErMin= 5 ErrMin= 3.38D-04
 ErrMax= 3.38D-04 EMaxC= 1.00D-01 BMatC= 1.85D-05 BMatP= 2.96D-04
 IDIUse=3 WtCom= 9.97D-01 WtEn= 3.38D-03
 Coeff-Com:  0.400D-02-0.261D-01-0.134D+00-0.990D-01 0.126D+01
 Coeff-En:   0.000D+00 0.000D+00 0.000D+00 0.000D+00 0.100D+01
 Coeff:      0.399D-02-0.260D-01-0.134D+00-0.987D-01 0.125D+01
 Gap=     0.452 Goal=   None    Shift=    0.000
 RMSDP=3.07D-05 MaxDP=1.22D-03 DE=-2.94D-04 OVMax= 4.60D-03

 Cycle   6  Pass 1  IDiag  1:
 E= -149.118336639712     Delta-E=       -0.000056603521 Rises=F Damp=F
 DIIS: error= 7.90D-05 at cycle   6 NSaved=   6.
 NSaved= 6 IEnMin= 6 EnMin= -149.118336639712     IErMin= 6 ErrMin= 7.90D-05
 ErrMax= 7.90D-05 EMaxC= 1.00D-01 BMatC= 2.33D-06 BMatP= 1.85D-05
 IDIUse=1 WtCom= 1.00D+00 WtEn= 0.00D+00
 Coeff-Com:  0.983D-03-0.414D-02-0.197D-01-0.799D-01 0.224D-01 0.108D+01
 Coeff:      0.983D-03-0.414D-02-0.197D-01-0.799D-01 0.224D-01 0.108D+01
 Gap=     0.452 Goal=   None    Shift=    0.000
 RMSDP=9.88D-06 MaxDP=3.75D-04 DE=-5.66D-05 OVMax= 1.30D-03

 Cycle   7  Pass 1  IDiag  1:
 E= -149.118342345882     Delta-E=       -0.000005706170 Rises=F Damp=F
 DIIS: error= 3.49D-05 at cycle   7 NSaved=   7.
 NSaved= 7 IEnMin= 7 EnMin= -149.118342345882     IErMin= 7 ErrMin= 3.49D-05
 ErrMax= 3.49D-05 EMaxC= 1.00D-01 BMatC= 3.35D-07 BMatP= 2.33D-06
 IDIUse=1 WtCom= 1.00D+00 WtEn= 0.00D+00
 Coeff-Com: -0.417D-03 0.309D-02 0.182D-01-0.359D-02-0.145D+00 0.111D+00
 Coeff-Com:  0.102D+01
 Coeff:     -0.417D-03 0.309D-02 0.182D-01-0.359D-02-0.145D+00 0.111D+00
 Coeff:      0.102D+01
 Gap=     0.452 Goal=   None    Shift=    0.000
 RMSDP=3.10D-06 MaxDP=1.28D-04 DE=-5.71D-06 OVMax= 5.66D-04

 Cycle   8  Pass 1  IDiag  1:
 E= -149.118343129295     Delta-E=       -0.000000783413 Rises=F Damp=F
 DIIS: error= 1.14D-05 at cycle   8 NSaved=   8.
 NSaved= 8 IEnMin= 8 EnMin= -149.118343129295     IErMin= 8 ErrMin= 1.14D-05
 ErrMax= 1.14D-05 EMaxC= 1.00D-01 BMatC= 4.16D-08 BMatP= 3.35D-07
 IDIUse=1 WtCom= 1.00D+00 WtEn= 0.00D+00
 Coeff-Com: -0.123D-03 0.498D-03 0.251D-02 0.578D-02 0.638D-02-0.144D+00
 Coeff-Com: -0.821D-01 0.121D+01
 Coeff:     -0.123D-03 0.498D-03 0.251D-02 0.578D-02 0.638D-02-0.144D+00
 Coeff:     -0.821D-01 0.121D+01
 Gap=     0.452 Goal=   None    Shift=    0.000
 RMSDP=1.38D-06 MaxDP=6.19D-05 DE=-7.83D-07 OVMax= 2.71D-04

 Cycle   9  Pass 1  IDiag  1:
 E= -149.118343258514     Delta-E=       -0.000000129219 Rises=F Damp=F
 DIIS: error= 2.63D-06 at cycle   9 NSaved=   9.
 NSaved= 9 IEnMin= 9 EnMin= -149.118343258514     IErMin= 9 ErrMin= 2.63D-06
 ErrMax= 2.63D-06 EMaxC= 1.00D-01 BMatC= 4.29D-09 BMatP= 4.16D-08
 IDIUse=1 WtCom= 1.00D+00 WtEn= 0.00D+00
 Coeff-Com:  0.732D-04-0.469D-03-0.246D-02-0.268D-02 0.174D-01 0.227D-01
 Coeff-Com: -0.108D+00-0.231D+00 0.130D+01
 Coeff:      0.732D-04-0.469D-03-0.246D-02-0.268D-02 0.174D-01 0.227D-01
 Coeff:     -0.108D+00-0.231D+00 0.130D+01
 Gap=     0.452 Goal=   None    Shift=    0.000
 RMSDP=4.60D-07 MaxDP=2.61D-05 DE=-1.29D-07 OVMax= 8.29D-05

 Cycle  10  Pass 1  IDiag  1:
 E= -149.118343272066     Delta-E=       -0.000000013551 Rises=F Damp=F
 DIIS: error= 1.15D-06 at cycle  10 NSaved=  10.
 NSaved=10 IEnMin=10 EnMin= -149.118343272066     IErMin=10 ErrMin= 1.15D-06
 ErrMax= 1.15D-06 EMaxC= 1.00D-01 BMatC= 3.36D-10 BMatP= 4.29D-09
 IDIUse=1 WtCom= 1.00D+00 WtEn= 0.00D+00
 Coeff-Com:  0.116D-05 0.110D-04 0.223D-03-0.517D-03-0.349D-02 0.124D-01
 Coeff-Com:  0.263D-01-0.746D-01-0.287D+00 0.133D+01
 Coeff:      0.116D-05 0.110D-04 0.223D-03-0.517D-03-0.349D-02 0.124D-01
 Coeff:      0.263D-01-0.746D-01-0.287D+00 0.133D+01
 Gap=     0.452 Goal=   None    Shift=    0.000
 RMSDP=1.59D-07 MaxDP=1.13D-05 DE=-1.36D-08 OVMax= 1.94D-05

 Cycle  11  Pass 1  IDiag  1:
 E= -149.118343273071     Delta-E=       -0.000000001005 Rises=F Damp=F
 DIIS: error= 1.22D-07 at cycle  11 NSaved=  11.
 NSaved=11 IEnMin=11 EnMin= -149.118343273071     IErMin=11 ErrMin= 1.22D-07
 ErrMax= 1.22D-07 EMaxC= 1.00D-01 BMatC= 6.48D-12 BMatP= 3.36D-10
 IDIUse=1 WtCom= 1.00D+00 WtEn= 0.00D+00
 Coeff-Com: -0.239D-05 0.140D-04 0.384D-04 0.189D-03 0.318D-04-0.286D-02
 Coeff-Com: -0.304D-02 0.258D-01 0.958D-02-0.270D+00 0.124D+01
 Coeff:     -0.239D-05 0.140D-04 0.384D-04 0.189D-03 0.318D-04-0.286D-02
 Coeff:     -0.304D-02 0.258D-01 0.958D-02-0.270D+00 0.124D+01
 Gap=     0.452 Goal=   None    Shift=    0.000
 RMSDP=2.02D-08 MaxDP=7.69D-07 DE=-1.01D-09 OVMax= 2.14D-06

 Cycle  12  Pass 1  IDiag  1:
 E= -149.118343273091     Delta-E=       -0.000000000020 Rises=F Damp=F
 DIIS: error= 2.47D-08 at cycle  12 NSaved=  12.
 NSaved=12 IEnMin=12 EnMin= -149.118343273091     IErMin=12 ErrMin= 2.47D-08
 ErrMax= 2.47D-08 EMaxC= 1.00D-01 BMatC= 2.71D-13 BMatP= 6.48D-12
 IDIUse=1 WtCom= 1.00D+00 WtEn= 0.00D+00
 Coeff-Com:  0.387D-06-0.309D-05-0.164D-04-0.252D-04 0.108D-03 0.305D-03
 Coeff-Com: -0.557D-03-0.289D-02 0.921D-02 0.714D-02-0.273D+00 0.126D+01
 Coeff:      0.387D-06-0.309D-05-0.164D-04-0.252D-04 0.108D-03 0.305D-03
 Coeff:     -0.557D-03-0.289D-02 0.921D-02 0.714D-02-0.273D+00 0.126D+01
 Gap=     0.452 Goal=   None    Shift=    0.000
 RMSDP=4.72D-09 MaxDP=1.97D-07 DE=-2.03D-11 OVMax= 4.62D-07

 SCF Done:  E(RHF) =  -149.118343273     A.U. after   12 cycles
             Convg  =    0.4725D-08             -V/T =  2.0029
 KE= 1.486856020695D+02 PE=-4.911358977675D+02 EE= 1.223022460715D+02
 Leave Link  502 at Fri Sep  6 15:52:05 2019, MaxMem= 4294967296 cpu:     382.8
 (Enter /opt/g09gh/gaussian/g09/l801.exe)
 ExpMin= 1.03D-01 ExpMax= 1.14D+04 ExpMxC= 3.89D+02 IAcc=1 IRadAn=         1 AccDes= 0.00D+00
 HarFok:  IExCor=  205 AccDes= 0.00D+00 IRadAn=         1 IDoV=-2
 ScaDFX=  1.000000  1.000000  1.000000  1.000000
 Largest valence mixing into a core orbital is  2.12D-04
 Largest core mixing into a valence orbital is  3.41D-05
 Range of M.O.s used for correlation:     4   292
 NBasis=   292 NAE=    12 NBE=    12 NFC=     3 NFV=     0
 NROrb=    289 NOA=     9 NOB=     9 NVA=   280 NVB=   280
 Leave Link  801 at Fri Sep  6 15:52:06 2019, MaxMem= 4294967296 cpu:       0.4
 (Enter /opt/g09gh/gaussian/g09/l906.exe)
 Frozen-core derivative calculation, NFC=   3 NFV=   0.
 FulOut=F Deriv=T AODrv=T NAtomX=    14
   MMem=         247  MDisk=           9 MDiskD=           9
  W3Min=     1156320 MinDsk=     2286575 NBas6D=         330
 NBas2D=       55287    NTT=       54615    LW2=     3500000
    MDV=  4293968424 MDiskM=       65029 NBas2p=       52305
 Fully direct method using O(ONN) memory.
 IMap=   1   2   3   4   5   6   7   8   9  10  11  12
 JobTyp=1 Pass  1:  I=   4 to  12 NPSUse=  8 ParTrn=T ParDer=T DoDerP=T.
 Spin components of T(2) and E(2):
     alpha-alpha T2 =       0.2234171534D-01 E2=     -0.7116547845D-01
     alpha-beta  T2 =       0.1310020362D+00 E2=     -0.4444280408D+00
     beta-beta   T2 =       0.2234171534D-01 E2=     -0.7116547845D-01
 The integrals were generated   1 times.
 ANorm=    0.1084290306D+01
 E2 =    -0.5867589978D+00 EUMP2 =    -0.14970510227085D+03
 Leave Link  906 at Fri Sep  6 15:53:01 2019, MaxMem= 4294967296 cpu:     441.3
 (Enter /opt/g09gh/gaussian/g09/l1002.exe)
 Minotr:  Closed shell wavefunction.
          Computing MP2/KS-MP2 derivatives.
          Using Z-Vector for PSCF gradient.
          Skipping F1 and S1 gradient terms here.
          IDoAtm=11111111111111
          Frozen-core window.
          Direct CPHF calculation.
          Differentiating once with respect to electric field.
                with respect to dipole field.
          Differentiating once with respect to nuclear coordinates.
          Requested convergence is 1.0D-10 RMS, and 1.0D-09 maximum.
          NewPWx=F KeepS1=T KeepF1=T KeepIn=T MapXYZ=F SortEE=F KeepMc=T.
          MDV=    4294967152 using IRadAn=       0.
          Keep R1 ints in memory in canonical form, NReq=1493368399.
 Symmetry not used in FoFDir.
 MinBra= 0 MaxBra= 3 Meth= 1.
 IRaf=       0 NMat=   1 IRICut=       1 DoRegI=T DoRafI=F ISym2E= 0 JSym2E=0.
          Solving linear equations separately, MaxMat=       0.
          There are     1 degrees of freedom in the 1st order CPHF.  IDoFFX=0.
 LinEq1:  Iter=  0 NonCon=     1 RMS=3.25D-03 Max=1.11D-01
 AX will form     1 AO Fock derivatives at one time.
 LinEq1:  Iter=  1 NonCon=     1 RMS=9.06D-04 Max=1.10D-02
 LinEq1:  Iter=  2 NonCon=     1 RMS=2.88D-04 Max=5.73D-03
 LinEq1:  Iter=  3 NonCon=     1 RMS=1.03D-04 Max=2.59D-03
 LinEq1:  Iter=  4 NonCon=     1 RMS=3.92D-05 Max=8.80D-04
 LinEq1:  Iter=  5 NonCon=     1 RMS=7.98D-06 Max=1.52D-04
 LinEq1:  Iter=  6 NonCon=     1 RMS=2.22D-06 Max=5.18D-05
 LinEq1:  Iter=  7 NonCon=     1 RMS=5.03D-07 Max=9.96D-06
 LinEq1:  Iter=  8 NonCon=     1 RMS=1.42D-07 Max=2.56D-06
 LinEq1:  Iter=  9 NonCon=     1 RMS=4.84D-08 Max=7.95D-07
 LinEq1:  Iter= 10 NonCon=     1 RMS=9.39D-09 Max=1.11D-07
 LinEq1:  Iter= 11 NonCon=     1 RMS=1.08D-09 Max=1.80D-08
 LinEq1:  Iter= 12 NonCon=     1 RMS=1.59D-10 Max=2.73D-09
 LinEq1:  Iter= 13 NonCon=     0 RMS=2.39D-11 Max=3.91D-10
 Linear equations converged to 1.000D-10 1.000D-09 after    13 iterations.
 End of Minotr Frequency-dependent properties file   721 does not exist.
 End of Minotr Frequency-dependent properties file   722 does not exist.
 Leave Link 1002 at Fri Sep  6 15:53:59 2019, MaxMem= 4294967296 cpu:     467.5
 (Enter /opt/g09gh/gaussian/g09/l601.exe)
 Copying SCF densities to generalized density rwf, IOpCl= 0 IROHF=0.

 **********************************************************************

            Population analysis using the SCF density.

 **********************************************************************

 Alpha  occ. eigenvalues --  -15.59650 -15.51852 -11.31647  -1.25454  -1.13826
 Alpha  occ. eigenvalues --   -0.81620  -0.74516  -0.63128  -0.61186  -0.53245
 Alpha  occ. eigenvalues --   -0.40044  -0.36123
 Alpha virt. eigenvalues --    0.09104   0.12905   0.14336   0.17650   0.19601
 Alpha virt. eigenvalues --    0.20017   0.23494   0.24009   0.27575   0.28211
 Alpha virt. eigenvalues --    0.32943   0.34792   0.39339   0.41016   0.41603
 Alpha virt. eigenvalues --    0.43377   0.46182   0.47072   0.51825   0.54188
 Alpha virt. eigenvalues --    0.55465   0.56672   0.57658   0.60180   0.61835
 Alpha virt. eigenvalues --    0.66365   0.66685   0.67319   0.69920   0.71303
 Alpha virt. eigenvalues --    0.72015   0.75025   0.78844   0.79647   0.81721
 Alpha virt. eigenvalues --    0.83667   0.85583   0.89630   0.91711   0.94520
 Alpha virt. eigenvalues --    0.95807   0.97002   0.99466   1.00301   1.02402
 Alpha virt. eigenvalues --    1.02699   1.08674   1.10568   1.13059   1.13727
 Alpha virt. eigenvalues --    1.14291   1.15446   1.17033   1.17864   1.21909
 Alpha virt. eigenvalues --    1.21987   1.24846   1.26632   1.30922   1.32113
 Alpha virt. eigenvalues --    1.32137   1.34727   1.36580   1.37512   1.39254
 Alpha virt. eigenvalues --    1.41372   1.44848   1.46642   1.49945   1.53113
 Alpha virt. eigenvalues --    1.57320   1.58719   1.61372   1.63122   1.64691
 Alpha virt. eigenvalues --    1.69422   1.70591   1.72022   1.73206   1.77342
 Alpha virt. eigenvalues --    1.81330   1.86249   1.86707   1.89706   1.93306
 Alpha virt. eigenvalues --    1.95807   1.97550   1.98817   2.00059   2.09630
 Alpha virt. eigenvalues --    2.10765   2.11133   2.18816   2.21479   2.27485
 Alpha virt. eigenvalues --    2.29895   2.32359   2.41014   2.42630   2.44801
 Alpha virt. eigenvalues --    2.46441   2.47229   2.56044   2.60079   2.66258
 Alpha virt. eigenvalues --    2.74209   2.78356   2.84303   2.86346   2.90946
 Alpha virt. eigenvalues --    2.93130   2.95322   2.95427   2.98709   3.00310
 Alpha virt. eigenvalues --    3.11925   3.15934   3.19862   3.27835   3.30289
 Alpha virt. eigenvalues --    3.31019   3.31880   3.37517   3.40709   3.42299
 Alpha virt. eigenvalues --    3.42852   3.49881   3.50019   3.54873   3.56488
 Alpha virt. eigenvalues --    3.59778   3.63045   3.65023   3.65816   3.68173
 Alpha virt. eigenvalues --    3.69490   3.79043   3.79338   3.80361   3.82529
 Alpha virt. eigenvalues --    3.84055   3.85120   3.86715   3.89348   3.92348
 Alpha virt. eigenvalues --    3.93146   3.96210   3.97402   3.98821   4.00615
 Alpha virt. eigenvalues --    4.03825   4.03972   4.05266   4.06419   4.13605
 Alpha virt. eigenvalues --    4.14152   4.14687   4.17944   4.24240   4.25338
 Alpha virt. eigenvalues --    4.25543   4.26695   4.27496   4.31957   4.32741
 Alpha virt. eigenvalues --    4.35016   4.37360   4.38445   4.39335   4.41635
 Alpha virt. eigenvalues --    4.43316   4.44065   4.46374   4.48615   4.51576
 Alpha virt. eigenvalues --    4.53450   4.53537   4.54168   4.58963   4.59553
 Alpha virt. eigenvalues --    4.61065   4.63277   4.65758   4.67165   4.71851
 Alpha virt. eigenvalues --    4.73715   4.77139   4.77707   4.78316   4.81332
 Alpha virt. eigenvalues --    4.86441   4.87911   4.91340   4.95608   4.97571
 Alpha virt. eigenvalues --    5.01234   5.03884   5.07012   5.09210   5.10117
 Alpha virt. eigenvalues --    5.16507   5.19885   5.24246   5.25366   5.33031
 Alpha virt. eigenvalues --    5.33606   5.34348   5.37631   5.40030   5.44103
 Alpha virt. eigenvalues --    5.49297   5.53364   5.54267   5.58384   5.60642
 Alpha virt. eigenvalues --    5.63955   5.68435   5.72713   5.73605   5.76223
 Alpha virt. eigenvalues --    5.82530   5.86261   5.92052   5.94463   5.97025
 Alpha virt. eigenvalues --    6.00872   6.02058   6.05584   6.09838   6.13901
 Alpha virt. eigenvalues --    6.17543   6.19526   6.24451   6.27514   6.28440
 Alpha virt. eigenvalues --    6.34487   6.39369   6.44316   6.47149   6.51183
 Alpha virt. eigenvalues --    6.54200   6.61608   6.65775   6.71844   6.75484
 Alpha virt. eigenvalues --    6.89819   6.99558   7.06198   7.13790   7.18582
 Alpha virt. eigenvalues --    7.20410   7.22006   7.22788   7.31227   7.41320
 Alpha virt. eigenvalues --    7.47242   7.49440   7.56775   7.80593   7.92901
 Alpha virt. eigenvalues --    8.03719   8.23241   8.27442   8.83129   8.92243
 Alpha virt. eigenvalues --    8.93087   9.02801   9.31312   9.88849  10.45711
 Alpha virt. eigenvalues --   10.60913  10.64502  10.87385  11.36812  11.49444
 Alpha virt. eigenvalues --   13.87374  14.81590  39.29963  51.06815  53.26603
          Condensed to atoms (all electrons):
              1          2          3          4          5          6
     1  C    4.535356   0.435371   0.632533  -0.022175   0.383928  -0.026635
     2  H    0.435371   0.644375  -0.039123  -0.030777  -0.090744   0.008734
     3  N    0.632533  -0.039123   6.408436   0.326786  -0.073723  -0.001102
     4  H   -0.022175  -0.030777   0.326786   0.578703   0.009531  -0.000337
     5  N    0.383928  -0.090744  -0.073723   0.009531   6.306157   0.373411
     6  H   -0.026635   0.008734  -0.001102  -0.000337   0.373411   0.479020
     7  H   -0.029039  -0.008240   0.002742  -0.000425   0.404295  -0.032624
     8  C   -0.000035   0.000191  -0.000688  -0.000042   0.000322   0.002759
     9  H   -0.000031   0.000008   0.000230  -0.000011   0.000021   0.000247
    10  N   -0.000046  -0.000090  -0.000945   0.000043  -0.004808  -0.008740
    11  H   -0.000045  -0.000003  -0.000015   0.000000  -0.000076  -0.000245
    12  N    0.001032  -0.000482  -0.038350   0.002712   0.000818  -0.000489
    13  H   -0.008933   0.005698   0.136077  -0.020038  -0.008019   0.002403
    14  H   -0.000034  -0.000005  -0.000011   0.000051   0.000016  -0.000010
              7          8          9         10         11         12
     1  C   -0.029039  -0.000035  -0.000031  -0.000046  -0.000045   0.001032
     2  H   -0.008240   0.000191   0.000008  -0.000090  -0.000003  -0.000482
     3  N    0.002742  -0.000688   0.000230  -0.000945  -0.000015  -0.038350
     4  H   -0.000425  -0.000042  -0.000011   0.000043   0.000000   0.002712
     5  N    0.404295   0.000322   0.000021  -0.004808  -0.000076   0.000818
     6  H   -0.032624   0.002759   0.000247  -0.008740  -0.000245  -0.000489
     7  H    0.463866  -0.000067  -0.000003   0.000181   0.000030   0.000002
     8  C   -0.000067   0.002230  -0.000416  -0.000428  -0.000038   0.000393
     9  H   -0.000003  -0.000416   0.000348  -0.000204  -0.000027   0.000054
    10  N    0.000181  -0.000428  -0.000204   0.001449  -0.000029   0.000082
    11  H    0.000030  -0.000038  -0.000027  -0.000029   0.000091  -0.000002
    12  N    0.000002   0.000393   0.000054   0.000082  -0.000002   0.009963
    13  H    0.000001  -0.002196   0.000553  -0.001170  -0.000031  -0.018666
    14  H    0.000000  -0.000167  -0.000002   0.000005   0.000000  -0.000564
             13         14
     1  C   -0.008933  -0.000034
     2  H    0.005698  -0.000005
     3  N    0.136077  -0.000011
     4  H   -0.020038   0.000051
     5  N   -0.008019   0.000016
     6  H    0.002403  -0.000010
     7  H    0.000001   0.000000
     8  C   -0.002196  -0.000167
     9  H    0.000553  -0.000002
    10  N   -0.001170   0.000005
    11  H   -0.000031   0.000000
    12  N   -0.018666  -0.000564
    13  H    0.048108   0.000722
    14  H    0.000722   0.000225
 Mulliken atomic charges:
              1
     1  C    0.098752
     2  H    0.075087
     3  N   -0.352848
     4  H    0.155979
     5  N   -0.301130
     6  H    0.203608
     7  H    0.199283
     8  C   -0.001817
     9  H   -0.000767
    10  N    0.014701
    11  H    0.000389
    12  N    0.043496
    13  H   -0.134509
    14  H   -0.000225
 Sum of Mulliken atomic charges =   0.00000
 Mulliken charges with hydrogens summed into heavy atoms:
              1
     1  C    0.173840
     3  N   -0.196869
     5  N    0.101761
     8  C   -0.002583
    10  N    0.015090
    12  N   -0.091238
 Sum of Mulliken charges with hydrogens summed into heavy atoms =   0.00000
          Condensed to fragments (all electrons):
     1       0.078732
     2      -0.078732
 Electronic spatial extent (au):  <R**2>=            342.0900
 Charge=              0.0000 electrons
 Dipole moment (field-independent basis, Debye):
    X=              2.1614    Y=              3.0480    Z=              0.0000  Tot=              3.7366
 Quadrupole moment (field-independent basis, Debye-Ang):
   XX=            -11.0778   YY=            -16.0913   ZZ=            -21.0433
   XY=              0.7561   XZ=              0.0000   YZ=              0.0000
 Traceless Quadrupole moment (field-independent basis, Debye-Ang):
   XX=              4.9930   YY=             -0.0205   ZZ=             -4.9725
   XY=              0.7561   XZ=              0.0000   YZ=              0.0000
 Octapole moment (field-independent basis, Debye-Ang**2):
  XXX=            -59.5658  YYY=              9.7641  ZZZ=              0.0000  XYY=            -16.6092
  XXY=              3.6093  XXZ=              0.0000  XZZ=            -29.7154  YZZ=              1.3522
  YYZ=              0.0000  XYZ=              0.0000
 Hexadecapole moment (field-independent basis, Debye-Ang**3):
 XXXX=           -217.2604 YYYY=           -130.1188 ZZZZ=            -21.0162 XXXY=             10.2544
 XXXZ=              0.0000 YYYX=              2.2872 YYYZ=              0.0000 ZZZX=              0.0000
 ZZZY=              0.0000 XXYY=            -42.4872 XXZZ=            -52.7499 YYZZ=            -32.8686
 XXYZ=              0.0000 YYXZ=              0.0000 ZZXY=              0.2115
 N-N= 7.102970635344D+01 E-N=-4.911358970655D+02  KE= 1.486856020695D+02
 No NMR shielding tensors so no spin-rotation constants.
 Leave Link  601 at Fri Sep  6 15:54:00 2019, MaxMem= 4294967296 cpu:       1.7
 (Enter /opt/g09gh/gaussian/g09/l701.exe)
 Compute integral first derivatives.
 ... and contract with generalized density number  2.
 Leave Link  701 at Fri Sep  6 15:54:00 2019, MaxMem= 4294967296 cpu:       1.9
 (Enter /opt/g09gh/gaussian/g09/l702.exe)
 L702 exits ... SP integral derivatives will be done elsewhere.
 Leave Link  702 at Fri Sep  6 15:54:00 2019, MaxMem= 4294967296 cpu:       0.2
 (Enter /opt/g09gh/gaussian/g09/l703.exe)
 Compute integral first derivatives, UseDBF=F ICtDFT=           0.
 Integral derivatives from FoFDir, PRISM(SPDF).
 Calling FoFJK, ICntrl=      2127 FMM=F ISym2X=0 I1Cent= 0 IOpClX= 0 NMat=1 NMatS=1 NMatT=0.
 FoFCou: FMM=F IPFlag=           0 FMFlag=      100000 FMFlg1=         800
         NFxFlg=           0 DoJE=F BraDBF=F KetDBF=F FulRan=T
         Omega=  0.000000  0.000000  1.000000  0.000000  0.000000 ICntrl=    2127 IOpCl=  0
         NMat0=    1 NMatS0=    1 NMatT0=    0 NMatD0=    1 NMtDS0=    0 NMtDT0=    0
         I1Cent=           0 NGrid=           0.
 Symmetry not used in FoFCou.
 Leave Link  703 at Fri Sep  6 15:54:13 2019, MaxMem= 4294967296 cpu:     104.3
 (Enter /opt/g09gh/gaussian/g09/l716.exe)
 Dipole        = 7.76715706D-01 1.11505818D+00-3.85604514D-15
 Cartesian Forces:  Max     0.062211577 RMS     0.019419603
 Leave Link  716 at Fri Sep  6 15:54:13 2019, MaxMem= 4294967296 cpu:       0.4
 (Enter /opt/g09gh/gaussian/g09/l122.exe)
 Counterpoise: doing DCBS calculation for fragment   2 NewBq=T
 Leave Link  122 at Fri Sep  6 15:54:13 2019, MaxMem= 4294967296 cpu:       0.0
 (Enter /opt/g09gh/gaussian/g09/l301.exe)
 Basis read from rwf:  (5D, 7F)
 No pseudopotential information found on rwf file.
 Integral buffers will be    131072 words long.
 Raffenetti 1 integral format.
 Two-electron integral symmetry is turned off.
   292 basis functions,   448 primitive gaussians,   330 cartesian basis functions
    12 alpha electrons       12 beta electrons
       nuclear repulsion energy        71.0297063534 Hartrees.
 IExCor=    0 DFT=F Ex=HF Corr=None ExCW=0 ScaHFX=  1.000000
 ScaDFX=  1.000000  1.000000  1.000000  1.000000 ScalE2=  1.000000  1.000000
 IRadAn=      0 IRanWt=     -1 IRanGd=            0 ICorTp=0
 NAtoms=   14 NActive=   14 NUniq=   14 SFac= 7.50D-01 NAtFMM=   80 NAOKFM=F Big=F
 No density basis found on file   718.
 Leave Link  301 at Fri Sep  6 15:54:13 2019, MaxMem= 4294967296 cpu:       0.8
 (Enter /opt/g09gh/gaussian/g09/l302.exe)
 NPDir=0 NMtPBC=     1 NCelOv=     1 NCel=       1 NClECP=     1 NCelD=      1
         NCelK=      1 NCelE2=     1 NClLst=     1 CellRange=     0.0.
 One-electron integrals computed using PRISM.
 NBasis=   292 RedAO= T  NBF=   292
 NBsUse=   292 1.00D-06 NBFU=   292
 Leave Link  302 at Fri Sep  6 15:54:13 2019, MaxMem= 4294967296 cpu:       2.1
 (Enter /opt/g09gh/gaussian/g09/l303.exe)
 DipDrv:  MaxL=1.
 Leave Link  303 at Fri Sep  6 15:54:13 2019, MaxMem= 4294967296 cpu:       0.4
 (Enter /opt/g09gh/gaussian/g09/l401.exe)
 Harris functional with IExCor=  205 diagonalized for initial guess.
 ExpMin= 1.03D-01 ExpMax= 1.14D+04 ExpMxC= 3.89D+02 IAcc=1 IRadAn=         1 AccDes= 0.00D+00
 HarFok:  IExCor=  205 AccDes= 0.00D+00 IRadAn=         1 IDoV= 1
 ScaDFX=  1.000000  1.000000  1.000000  1.000000
 FoFCou: FMM=F IPFlag=           0 FMFlag=      100000 FMFlg1=           0
         NFxFlg=           0 DoJE=T BraDBF=F KetDBF=T FulRan=T
         Omega=  0.000000  0.000000  1.000000  0.000000  0.000000 ICntrl=     500 IOpCl=  0
         NMat0=    1 NMatS0=    1 NMatT0=    0 NMatD0=    1 NMtDS0=    0 NMtDT0=    0
         I1Cent=           4 NGrid=           0.
 Symmetry not used in FoFCou.
 Harris En= -149.366598776695    
 Leave Link  401 at Fri Sep  6 15:54:14 2019, MaxMem= 4294967296 cpu:       3.8
 (Enter /opt/g09gh/gaussian/g09/l502.exe)
 Closed shell SCF:
 Requested convergence on RMS density matrix=1.00D-08 within  64 cycles.
 Requested convergence on MAX density matrix=1.00D-06.
 Requested convergence on             energy=1.00D-06.
 No special actions if energy rises.
 Using DIIS extrapolation, IDIIS=  1040.
 Two-electron integral symmetry not used.
 Keep R1 ints in memory in canonical form, NReq=1509895500.
 IEnd=      336886 IEndB=      336886 NGot=  4294967296 MDV=  2803317417
 LenX=  2803317417 LenY=  2803208076
 Symmetry not used in FoFDir.
 MinBra= 0 MaxBra= 3 Meth= 1.
 IRaf=       0 NMat=   1 IRICut=       1 DoRegI=T DoRafI=F ISym2E= 0 JSym2E=0.

 Cycle   1  Pass 1  IDiag  1:
 E= -148.925653019738    
 DIIS: error= 2.77D-02 at cycle   1 NSaved=   1.
 NSaved= 1 IEnMin= 1 EnMin= -148.925653019738     IErMin= 1 ErrMin= 2.77D-02
 ErrMax= 2.77D-02 EMaxC= 1.00D-01 BMatC= 3.51D-01 BMatP= 3.51D-01
 IDIUse=3 WtCom= 7.23D-01 WtEn= 2.77D-01
 Coeff-Com:  0.100D+01
 Coeff-En:   0.100D+01
 Coeff:      0.100D+01
 Gap=     0.558 Goal=   None    Shift=    0.000
 GapD=    0.558 DampG=2.000 DampE=0.500 DampFc=1.0000 IDamp=-1.
 RMSDP=1.63D-03 MaxDP=8.69D-02              OVMax= 1.70D-01

 Cycle   2  Pass 1  IDiag  1:
 E= -149.071394384442     Delta-E=       -0.145741364704 Rises=F Damp=F
 DIIS: error= 1.02D-02 at cycle   2 NSaved=   2.
 NSaved= 2 IEnMin= 2 EnMin= -149.071394384442     IErMin= 2 ErrMin= 1.02D-02
 ErrMax= 1.02D-02 EMaxC= 1.00D-01 BMatC= 5.78D-02 BMatP= 3.51D-01
 IDIUse=3 WtCom= 8.98D-01 WtEn= 1.02D-01
 Coeff-Com:  0.233D+00 0.767D+00
 Coeff-En:   0.000D+00 0.100D+01
 Coeff:      0.209D+00 0.791D+00
 Gap=     0.477 Goal=   None    Shift=    0.000
 RMSDP=8.69D-04 MaxDP=5.58D-02 DE=-1.46D-01 OVMax= 7.35D-02

 Cycle   3  Pass 1  IDiag  1:
 E= -149.114117711523     Delta-E=       -0.042723327081 Rises=F Damp=F
 DIIS: error= 2.92D-03 at cycle   3 NSaved=   3.
 NSaved= 3 IEnMin= 3 EnMin= -149.114117711523     IErMin= 3 ErrMin= 2.92D-03
 ErrMax= 2.92D-03 EMaxC= 1.00D-01 BMatC= 4.93D-03 BMatP= 5.78D-02
 IDIUse=3 WtCom= 9.71D-01 WtEn= 2.92D-02
 Coeff-Com: -0.210D-01 0.190D+00 0.831D+00
 Coeff-En:   0.000D+00 0.000D+00 0.100D+01
 Coeff:     -0.204D-01 0.184D+00 0.836D+00
 Gap=     0.453 Goal=   None    Shift=    0.000
 RMSDP=1.40D-04 MaxDP=8.39D-03 DE=-4.27D-02 OVMax= 2.87D-02

 Cycle   4  Pass 1  IDiag  1:
 E= -149.117985591378     Delta-E=       -0.003867879855 Rises=F Damp=F
 DIIS: error= 1.01D-03 at cycle   4 NSaved=   4.
 NSaved= 4 IEnMin= 4 EnMin= -149.117985591378     IErMin= 4 ErrMin= 1.01D-03
 ErrMax= 1.01D-03 EMaxC= 1.00D-01 BMatC= 2.96D-04 BMatP= 4.93D-03
 IDIUse=3 WtCom= 9.90D-01 WtEn= 1.01D-02
 Coeff-Com: -0.128D-01 0.410D-01 0.273D+00 0.699D+00
 Coeff-En:   0.000D+00 0.000D+00 0.000D+00 0.100D+01
 Coeff:     -0.127D-01 0.406D-01 0.270D+00 0.702D+00
 Gap=     0.451 Goal=   None    Shift=    0.000
 RMSDP=4.83D-05 MaxDP=2.34D-03 DE=-3.87D-03 OVMax= 4.86D-03

 Cycle   5  Pass 1  IDiag  1:
 E= -149.118280036191     Delta-E=       -0.000294444813 Rises=F Damp=F
 DIIS: error= 3.38D-04 at cycle   5 NSaved=   5.
 NSaved= 5 IEnMin= 5 EnMin= -149.118280036191     IErMin= 5 ErrMin= 3.38D-04
 ErrMax= 3.38D-04 EMaxC= 1.00D-01 BMatC= 1.85D-05 BMatP= 2.96D-04
 IDIUse=3 WtCom= 9.97D-01 WtEn= 3.38D-03
 Coeff-Com:  0.400D-02-0.261D-01-0.134D+00-0.990D-01 0.126D+01
 Coeff-En:   0.000D+00 0.000D+00 0.000D+00 0.000D+00 0.100D+01
 Coeff:      0.399D-02-0.260D-01-0.134D+00-0.987D-01 0.125D+01
 Gap=     0.452 Goal=   None    Shift=    0.000
 RMSDP=3.07D-05 MaxDP=1.22D-03 DE=-2.94D-04 OVMax= 4.60D-03

 Cycle   6  Pass 1  IDiag  1:
 E= -149.118336639713     Delta-E=       -0.000056603521 Rises=F Damp=F
 DIIS: error= 7.90D-05 at cycle   6 NSaved=   6.
 NSaved= 6 IEnMin= 6 EnMin= -149.118336639713     IErMin= 6 ErrMin= 7.90D-05
 ErrMax= 7.90D-05 EMaxC= 1.00D-01 BMatC= 2.33D-06 BMatP= 1.85D-05
 IDIUse=1 WtCom= 1.00D+00 WtEn= 0.00D+00
 Coeff-Com:  0.983D-03-0.414D-02-0.197D-01-0.799D-01 0.224D-01 0.108D+01
 Coeff:      0.983D-03-0.414D-02-0.197D-01-0.799D-01 0.224D-01 0.108D+01
 Gap=     0.452 Goal=   None    Shift=    0.000
 RMSDP=9.88D-06 MaxDP=3.75D-04 DE=-5.66D-05 OVMax= 1.30D-03

 Cycle   7  Pass 1  IDiag  1:
 E= -149.118342345881     Delta-E=       -0.000005706168 Rises=F Damp=F
 DIIS: error= 3.49D-05 at cycle   7 NSaved=   7.
 NSaved= 7 IEnMin= 7 EnMin= -149.118342345881     IErMin= 7 ErrMin= 3.49D-05
 ErrMax= 3.49D-05 EMaxC= 1.00D-01 BMatC= 3.35D-07 BMatP= 2.33D-06
 IDIUse=1 WtCom= 1.00D+00 WtEn= 0.00D+00
 Coeff-Com: -0.417D-03 0.309D-02 0.182D-01-0.359D-02-0.145D+00 0.111D+00
 Coeff-Com:  0.102D+01
 Coeff:     -0.417D-03 0.309D-02 0.182D-01-0.359D-02-0.145D+00 0.111D+00
 Coeff:      0.102D+01
 Gap=     0.452 Goal=   None    Shift=    0.000
[...]
 LinEq1:  Iter=  7 NonCon=     1 RMS=8.15D-07 Max=1.95D-05
 LinEq1:  Iter=  8 NonCon=     1 RMS=3.58D-07 Max=9.58D-06
 LinEq1:  Iter=  9 NonCon=     1 RMS=9.13D-08 Max=1.25D-06
 LinEq1:  Iter= 10 NonCon=     1 RMS=1.38D-08 Max=2.16D-07
 LinEq1:  Iter= 11 NonCon=     1 RMS=1.58D-09 Max=3.12D-08
 LinEq1:  Iter= 12 NonCon=     1 RMS=2.46D-10 Max=5.99D-09
 LinEq1:  Iter= 13 NonCon=     0 RMS=3.19D-11 Max=6.14D-10
 Linear equations converged to 1.000D-10 1.000D-09 after    13 iterations.
 End of Minotr Frequency-dependent properties file   721 does not exist.
 End of Minotr Frequency-dependent properties file   722 does not exist.
 Leave Link 1002 at Fri Sep  6 16:21:22 2019, MaxMem= 4294967296 cpu:     437.1
 (Enter /opt/g09gh/gaussian/g09/l701.exe)
 Compute integral first derivatives.
 ... and contract with generalized density number  2.
 Leave Link  701 at Fri Sep  6 16:21:22 2019, MaxMem= 4294967296 cpu:       1.7
 (Enter /opt/g09gh/gaussian/g09/l702.exe)
 L702 exits ... SP integral derivatives will be done elsewhere.
 Leave Link  702 at Fri Sep  6 16:21:22 2019, MaxMem= 4294967296 cpu:       0.2
 (Enter /opt/g09gh/gaussian/g09/l703.exe)
 Compute integral first derivatives, UseDBF=F ICtDFT=           0.
 Integral derivatives from FoFDir, PRISM(SPDF).
 Calling FoFJK, ICntrl=      2127 FMM=F ISym2X=0 I1Cent= 0 IOpClX= 0 NMat=1 NMatS=1 NMatT=0.
 FoFCou: FMM=F IPFlag=           0 FMFlag=      100000 FMFlg1=         800
         NFxFlg=           0 DoJE=F BraDBF=F KetDBF=F FulRan=T
         Omega=  0.000000  0.000000  1.000000  0.000000  0.000000 ICntrl=    2127 IOpCl=  0
         NMat0=    1 NMatS0=    1 NMatT0=    0 NMatD0=    1 NMtDS0=    0 NMtDT0=    0
         I1Cent=           0 NGrid=           0.
 Symmetry not used in FoFCou.
 Leave Link  703 at Fri Sep  6 16:21:35 2019, MaxMem= 4294967296 cpu:     101.2
 (Enter /opt/g09gh/gaussian/g09/l716.exe)
 Dipole        =-1.04378728D-11-1.11466392D-11 1.36213571D-09
 Cartesian Forces:  Max     0.015303872 RMS     0.005129051
 Leave Link  716 at Fri Sep  6 16:21:35 2019, MaxMem= 4294967296 cpu:       0.3
 (Enter /opt/g09gh/gaussian/g09/l122.exe)
 Restoring MOs from calculation   2 to rwf.
 Counterpoise: doing DCBS calculation for fragment   1 NewBq=T
 Leave Link  122 at Fri Sep  6 16:21:35 2019, MaxMem= 4294967296 cpu:       0.0
 (Enter /opt/g09gh/gaussian/g09/l301.exe)
 Basis read from rwf:  (5D, 7F)
 No pseudopotential information found on rwf file.
 Integral buffers will be    131072 words long.
 Raffenetti 1 integral format.
 Two-electron integral symmetry is turned off.
   292 basis functions,   448 primitive gaussians,   330 cartesian basis functions
    12 alpha electrons       12 beta electrons
       nuclear repulsion energy        72.0471585721 Hartrees.
 IExCor=    0 DFT=F Ex=HF Corr=None ExCW=0 ScaHFX=  1.000000
 ScaDFX=  1.000000  1.000000  1.000000  1.000000 ScalE2=  1.000000  1.000000
 IRadAn=      0 IRanWt=     -1 IRanGd=            0 ICorTp=0
 NAtoms=   14 NActive=   14 NUniq=   14 SFac= 7.50D-01 NAtFMM=   80 NAOKFM=F Big=F
 No density basis found on file   718.
 Leave Link  301 at Fri Sep  6 16:21:35 2019, MaxMem= 4294967296 cpu:       0.7
 (Enter /opt/g09gh/gaussian/g09/l302.exe)
 NPDir=0 NMtPBC=     1 NCelOv=     1 NCel=       1 NClECP=     1 NCelD=      1
         NCelK=      1 NCelE2=     1 NClLst=     1 CellRange=     0.0.
 One-electron integrals computed using PRISM.
 NBasis=   292 RedAO= T  NBF=   292
 NBsUse=   292 1.00D-06 NBFU=   292
 Leave Link  302 at Fri Sep  6 16:21:35 2019, MaxMem= 4294967296 cpu:       2.0
 (Enter /opt/g09gh/gaussian/g09/l303.exe)
 DipDrv:  MaxL=1.
 Leave Link  303 at Fri Sep  6 16:21:36 2019, MaxMem= 4294967296 cpu:       0.4
 (Enter /opt/g09gh/gaussian/g09/l401.exe)
 Initial guess read from the read-write file.
 B after Tr=     0.000000    0.000000    0.000000
         Rot=    1.000000    0.000000    0.000000    0.000000 Ang=   0.00 deg.
 Guess basis will be translated and rotated to current coordinates.
 Generating alternative initial guess.
 Harris functional with IExCor=  205 diagonalized for initial guess.
 ExpMin= 1.03D-01 ExpMax= 1.14D+04 ExpMxC= 3.89D+02 IAcc=1 IRadAn=         1 AccDes= 0.00D+00
 HarFok:  IExCor=  205 AccDes= 0.00D+00 IRadAn=         1 IDoV= 1
 ScaDFX=  1.000000  1.000000  1.000000  1.000000
 FoFCou: FMM=F IPFlag=           0 FMFlag=      100000 FMFlg1=           0
         NFxFlg=           0 DoJE=T BraDBF=F KetDBF=T FulRan=T
         Omega=  0.000000  0.000000  1.000000  0.000000  0.000000 ICntrl=     500 IOpCl=  0
         NMat0=    1 NMatS0=    1 NMatT0=    0 NMatD0=    1 NMtDS0=    0 NMtDT0=    0
         I1Cent=           4 NGrid=           0.
 Symmetry not used in FoFCou.
 Harris En= -149.384009782803    
 Leave Link  401 at Fri Sep  6 16:21:36 2019, MaxMem= 4294967296 cpu:       5.8
 (Enter /opt/g09gh/gaussian/g09/l502.exe)
 Closed shell SCF:
 Requested convergence on RMS density matrix=1.00D-08 within  64 cycles.
 Requested convergence on MAX density matrix=1.00D-06.
 Requested convergence on             energy=1.00D-06.
 No special actions if energy rises.
 Using DIIS extrapolation, IDIIS=  1040.
 Two-electron integral symmetry not used.
 Keep R1 ints in memory in canonical form, NReq=1509895500.
 IEnd=      336886 IEndB=      336886 NGot=  4294967296 MDV=  2803317417
 LenX=  2803317417 LenY=  2803208076
 Symmetry not used in FoFDir.
 MinBra= 0 MaxBra= 3 Meth= 1.
 IRaf=       0 NMat=   1 IRICut=       1 DoRegI=T DoRafI=F ISym2E= 0 JSym2E=0.

 Cycle   1  Pass 1  IDiag  1:
 E= -149.134223774997    
 DIIS: error= 8.87D-04 at cycle   1 NSaved=   1.
 NSaved= 1 IEnMin= 1 EnMin= -149.134223774997     IErMin= 1 ErrMin= 8.87D-04
 ErrMax= 8.87D-04 EMaxC= 1.00D-01 BMatC= 3.88D-04 BMatP= 3.88D-04
 IDIUse=3 WtCom= 9.91D-01 WtEn= 8.87D-03
 Coeff-Com:  0.100D+01
 Coeff-En:   0.100D+01
 Coeff:      0.100D+01
 Gap=     0.486 Goal=   None    Shift=    0.000
 RMSDP=4.29D-05 MaxDP=1.46D-03              OVMax= 4.11D-03

 Cycle   2  Pass 1  IDiag  1:
 E= -149.134572869330     Delta-E=       -0.000349094333 Rises=F Damp=F
 DIIS: error= 2.06D-04 at cycle   2 NSaved=   2.
 NSaved= 2 IEnMin= 2 EnMin= -149.134572869330     IErMin= 2 ErrMin= 2.06D-04
 ErrMax= 2.06D-04 EMaxC= 1.00D-01 BMatC= 1.65D-05 BMatP= 3.88D-04
 IDIUse=3 WtCom= 9.98D-01 WtEn= 2.06D-03
 Coeff-Com: -0.166D+00 0.117D+01
 Coeff-En:   0.000D+00 0.100D+01
 Coeff:     -0.166D+00 0.117D+01
 Gap=     0.444 Goal=   None    Shift=    0.000
 RMSDP=1.32D-05 MaxDP=5.43D-04 DE=-3.49D-04 OVMax= 1.41D-03

 Cycle   3  Pass 1  IDiag  1:
 E= -149.134595919871     Delta-E=       -0.000023050541 Rises=F Damp=F
 DIIS: error= 6.25D-05 at cycle   3 NSaved=   3.
 NSaved= 3 IEnMin= 3 EnMin= -149.134595919871     IErMin= 3 ErrMin= 6.25D-05
 ErrMax= 6.25D-05 EMaxC= 1.00D-01 BMatC= 1.66D-06 BMatP= 1.65D-05
 IDIUse=1 WtCom= 1.00D+00 WtEn= 0.00D+00
 Coeff-Com: -0.491D-01 0.204D+00 0.845D+00
 Coeff:     -0.491D-01 0.204D+00 0.845D+00
 Gap=     0.444 Goal=   None    Shift=    0.000
 RMSDP=3.43D-06 MaxDP=1.40D-04 DE=-2.31D-05 OVMax= 4.23D-04

 Cycle   4  Pass 1  IDiag  1:
 E= -149.134597573879     Delta-E=       -0.000001654008 Rises=F Damp=F
 DIIS: error= 2.40D-05 at cycle   4 NSaved=   4.
 NSaved= 4 IEnMin= 4 EnMin= -149.134597573879     IErMin= 4 ErrMin= 2.40D-05
 ErrMax= 2.40D-05 EMaxC= 1.00D-01 BMatC= 2.52D-07 BMatP= 1.66D-06
 IDIUse=1 WtCom= 1.00D+00 WtEn= 0.00D+00
 Coeff-Com:  0.109D-01-0.114D+00 0.196D+00 0.907D+00
 Coeff:      0.109D-01-0.114D+00 0.196D+00 0.907D+00
 Gap=     0.444 Goal=   None    Shift=    0.000
 RMSDP=1.56D-06 MaxDP=5.27D-05 DE=-1.65D-06 OVMax= 1.91D-04

 Cycle   5  Pass 1  IDiag  1:
 E= -149.134597888759     Delta-E=       -0.000000314880 Rises=F Damp=F
 DIIS: error= 6.96D-06 at cycle   5 NSaved=   5.
 NSaved= 5 IEnMin= 5 EnMin= -149.134597888759     IErMin= 5 ErrMin= 6.96D-06
 ErrMax= 6.96D-06 EMaxC= 1.00D-01 BMatC= 1.16D-08 BMatP= 2.52D-07
 IDIUse=1 WtCom= 1.00D+00 WtEn= 0.00D+00
 Coeff-Com:  0.416D-02-0.280D-01-0.183D-01 0.128D+00 0.914D+00
 Coeff:      0.416D-02-0.280D-01-0.183D-01 0.128D+00 0.914D+00
 Gap=     0.444 Goal=   None    Shift=    0.000
 RMSDP=4.30D-07 MaxDP=1.98D-05 DE=-3.15D-07 OVMax= 5.86D-05

 Cycle   6  Pass 1  IDiag  1:
 E= -149.134597906037     Delta-E=       -0.000000017278 Rises=F Damp=F
 DIIS: error= 1.84D-06 at cycle   6 NSaved=   6.
 NSaved= 6 IEnMin= 6 EnMin= -149.134597906037     IErMin= 6 ErrMin= 1.84D-06
 ErrMax= 1.84D-06 EMaxC= 1.00D-01 BMatC= 1.27D-09 BMatP= 1.16D-08
 IDIUse=1 WtCom= 1.00D+00 WtEn= 0.00D+00
 Coeff-Com: -0.508D-03 0.739D-02-0.236D-01-0.722D-01 0.126D+00 0.963D+00
 Coeff:     -0.508D-03 0.739D-02-0.236D-01-0.722D-01 0.126D+00 0.963D+00
 Gap=     0.444 Goal=   None    Shift=    0.000
 RMSDP=2.05D-07 MaxDP=1.15D-05 DE=-1.73D-08 OVMax= 2.79D-05

 Cycle   7  Pass 1  IDiag  1:
 E= -149.134597908640     Delta-E=       -0.000000002603 Rises=F Damp=F
 DIIS: error= 5.57D-07 at cycle   7 NSaved=   7.
 NSaved= 7 IEnMin= 7 EnMin= -149.134597908640     IErMin= 7 ErrMin= 5.57D-07
 ErrMax= 5.57D-07 EMaxC= 1.00D-01 BMatC= 1.43D-10 BMatP= 1.27D-09
 IDIUse=1 WtCom= 1.00D+00 WtEn= 0.00D+00
 Coeff-Com: -0.450D-03 0.313D-02 0.185D-02-0.120D-01-0.119D+00 0.538D-01
 Coeff-Com:  0.107D+01
 Coeff:     -0.450D-03 0.313D-02 0.185D-02-0.120D-01-0.119D+00 0.538D-01
 Coeff:      0.107D+01
 Gap=     0.444 Goal=   None    Shift=    0.000
 RMSDP=8.11D-08 MaxDP=4.81D-06 DE=-2.60D-09 OVMax= 1.15D-05

 Cycle   8  Pass 1  IDiag  1:
 E= -149.134597908945     Delta-E=       -0.000000000305 Rises=F Damp=F
 DIIS: error= 1.55D-07 at cycle   8 NSaved=   8.
 NSaved= 8 IEnMin= 8 EnMin= -149.134597908945     IErMin= 8 ErrMin= 1.55D-07
 ErrMax= 1.55D-07 EMaxC= 1.00D-01 BMatC= 7.63D-12 BMatP= 1.43D-10
 IDIUse=1 WtCom= 1.00D+00 WtEn= 0.00D+00
 Coeff-Com:  0.158D-03-0.134D-02 0.916D-03 0.941D-02 0.144D-01-0.549D-01
 Coeff-Com: -0.300D+00 0.133D+01
 Coeff:      0.158D-03-0.134D-02 0.916D-03 0.941D-02 0.144D-01-0.549D-01
 Coeff:     -0.300D+00 0.133D+01
 Gap=     0.444 Goal=   None    Shift=    0.000
 RMSDP=2.39D-08 MaxDP=1.54D-06 DE=-3.05D-10 OVMax= 3.13D-06

 Cycle   9  Pass 1  IDiag  1:
 E= -149.134597908965     Delta-E=       -0.000000000020 Rises=F Damp=F
 DIIS: error= 2.96D-08 at cycle   9 NSaved=   9.
 NSaved= 9 IEnMin= 9 EnMin= -149.134597908965     IErMin= 9 ErrMin= 2.96D-08
 ErrMax= 2.96D-08 EMaxC= 1.00D-01 BMatC= 4.15D-13 BMatP= 7.63D-12
 IDIUse=1 WtCom= 1.00D+00 WtEn= 0.00D+00
 Coeff-Com:  0.790D-05-0.397D-04-0.228D-03-0.238D-04 0.369D-02 0.487D-02
 Coeff-Com: -0.278D-01-0.133D+00 0.115D+01
 Coeff:      0.790D-05-0.397D-04-0.228D-03-0.238D-04 0.369D-02 0.487D-02
 Coeff:     -0.278D-01-0.133D+00 0.115D+01
 Gap=     0.444 Goal=   None    Shift=    0.000
 RMSDP=4.08D-09 MaxDP=1.74D-07 DE=-2.05D-11 OVMax= 6.15D-07

 SCF Done:  E(RHF) =  -149.134597909     A.U. after    9 cycles
             Convg  =    0.4082D-08             -V/T =  2.0022
 KE= 1.488015488594D+02 PE=-4.934068869404D+02 EE= 1.234235815999D+02
 Leave Link  502 at Fri Sep  6 16:22:15 2019, MaxMem= 4294967296 cpu:     310.8
 (Enter /opt/g09gh/gaussian/g09/l801.exe)
 ExpMin= 1.03D-01 ExpMax= 1.14D+04 ExpMxC= 3.89D+02 IAcc=1 IRadAn=         1 AccDes= 0.00D+00
 HarFok:  IExCor=  205 AccDes= 0.00D+00 IRadAn=         1 IDoV=-2
 ScaDFX=  1.000000  1.000000  1.000000  1.000000
 Largest valence mixing into a core orbital is  2.10D-04
 Largest core mixing into a valence orbital is  3.46D-05
 Range of M.O.s used for correlation:     4   292
 NBasis=   292 NAE=    12 NBE=    12 NFC=     3 NFV=     0
 NROrb=    289 NOA=     9 NOB=     9 NVA=   280 NVB=   280
 Leave Link  801 at Fri Sep  6 16:22:15 2019, MaxMem= 4294967296 cpu:       0.4
 (Enter /opt/g09gh/gaussian/g09/l906.exe)
 Frozen-core derivative calculation, NFC=   3 NFV=   0.
 FulOut=F Deriv=T AODrv=T NAtomX=    14
   MMem=         251  MDisk=           9 MDiskD=           9
  W3Min=     1156320 MinDsk=     2286575 NBas6D=         330
 NBas2D=       55287    NTT=       54615    LW2=     3500000
    MDV=  4293973820 MDiskM=       65029 NBas2p=       51498
 Fully direct method using O(ONN) memory.
 IMap=   1   2   3   4   5   6   7   8   9  10  11  12
 JobTyp=1 Pass  1:  I=   4 to  12 NPSUse=  8 ParTrn=T ParDer=T DoDerP=T.
 Spin components of T(2) and E(2):
     alpha-alpha T2 =       0.2215895979D-01 E2=     -0.7103796163D-01
     alpha-beta  T2 =       0.1295537111D+00 E2=     -0.4426678205D+00
     beta-beta   T2 =       0.2215895979D-01 E2=     -0.7103796163D-01
 The integrals were generated   1 times.
 ANorm=    0.1083453566D+01
 E2 =    -0.5847437438D+00 EUMP2 =    -0.14971934165273D+03
 Leave Link  906 at Fri Sep  6 16:23:24 2019, MaxMem= 4294967296 cpu:     550.0
 (Enter /opt/g09gh/gaussian/g09/l1002.exe)
 Minotr:  Closed shell wavefunction.
          Computing MP2/KS-MP2 derivatives.
          Using Z-Vector for PSCF gradient.
          Skipping F1 and S1 gradient terms here.
          IDoAtm=11111111111111
          Frozen-core window.
          Direct CPHF calculation.
          Differentiating once with respect to electric field.
                with respect to dipole field.
          Differentiating once with respect to nuclear coordinates.
          Requested convergence is 1.0D-10 RMS, and 1.0D-09 maximum.
          NewPWx=F KeepS1=T KeepF1=T KeepIn=T MapXYZ=F SortEE=F KeepMc=T.
          MDV=    4294967152 using IRadAn=       0.
          Keep R1 ints in memory in canonical form, NReq=1493368399.
 Symmetry not used in FoFDir.
 MinBra= 0 MaxBra= 3 Meth= 1.
 IRaf=       0 NMat=   1 IRICut=       1 DoRegI=T DoRafI=F ISym2E= 0 JSym2E=0.
          Solving linear equations separately, MaxMat=       0.
          There are     1 degrees of freedom in the 1st order CPHF.  IDoFFX=0.
 LinEq1:  Iter=  0 NonCon=     1 RMS=3.22D-03 Max=1.11D-01
 AX will form     1 AO Fock derivatives at one time.
 LinEq1:  Iter=  1 NonCon=     1 RMS=8.79D-04 Max=1.12D-02
 LinEq1:  Iter=  2 NonCon=     1 RMS=2.83D-04 Max=5.82D-03
 LinEq1:  Iter=  3 NonCon=     1 RMS=1.02D-04 Max=2.68D-03
 LinEq1:  Iter=  4 NonCon=     1 RMS=3.83D-05 Max=7.44D-04
 LinEq1:  Iter=  5 NonCon=     1 RMS=8.30D-06 Max=1.32D-04
 LinEq1:  Iter=  6 NonCon=     1 RMS=2.37D-06 Max=5.29D-05
 LinEq1:  Iter=  7 NonCon=     1 RMS=7.93D-07 Max=1.73D-05
 LinEq1:  Iter=  8 NonCon=     1 RMS=2.72D-07 Max=4.20D-06
 LinEq1:  Iter=  9 NonCon=     1 RMS=6.02D-08 Max=6.85D-07
 LinEq1:  Iter= 10 NonCon=     1 RMS=9.38D-09 Max=1.11D-07
 LinEq1:  Iter= 11 NonCon=     1 RMS=9.91D-10 Max=9.58D-09
 LinEq1:  Iter= 12 NonCon=     1 RMS=1.37D-10 Max=1.65D-09
 LinEq1:  Iter= 13 NonCon=     0 RMS=1.97D-11 Max=2.88D-10
 Linear equations converged to 1.000D-10 1.000D-09 after    13 iterations.
 End of Minotr Frequency-dependent properties file   721 does not exist.
 End of Minotr Frequency-dependent properties file   722 does not exist.
 Leave Link 1002 at Fri Sep  6 16:24:32 2019, MaxMem= 4294967296 cpu:     544.2
 (Enter /opt/g09gh/gaussian/g09/l701.exe)
 Compute integral first derivatives.
 ... and contract with generalized density number  2.
 Leave Link  701 at Fri Sep  6 16:24:32 2019, MaxMem= 4294967296 cpu:       1.9
 (Enter /opt/g09gh/gaussian/g09/l702.exe)
 L702 exits ... SP integral derivatives will be done elsewhere.
 Leave Link  702 at Fri Sep  6 16:24:32 2019, MaxMem= 4294967296 cpu:       0.2
 (Enter /opt/g09gh/gaussian/g09/l703.exe)
 Compute integral first derivatives, UseDBF=F ICtDFT=           0.
 Integral derivatives from FoFDir, PRISM(SPDF).
 Calling FoFJK, ICntrl=      2127 FMM=F ISym2X=0 I1Cent= 0 IOpClX= 0 NMat=1 NMatS=1 NMatT=0.
 FoFCou: FMM=F IPFlag=           0 FMFlag=      100000 FMFlg1=         800
         NFxFlg=           0 DoJE=F BraDBF=F KetDBF=F FulRan=T
         Omega=  0.000000  0.000000  1.000000  0.000000  0.000000 ICntrl=    2127 IOpCl=  0
         NMat0=    1 NMatS0=    1 NMatT0=    0 NMatD0=    1 NMtDS0=    0 NMtDT0=    0
         I1Cent=           0 NGrid=           0.
 Symmetry not used in FoFCou.
 Leave Link  703 at Fri Sep  6 16:24:45 2019, MaxMem= 4294967296 cpu:      97.6
 (Enter /opt/g09gh/gaussian/g09/l716.exe)
 Dipole        = 7.55273605D-01 9.18763898D-01-3.62716966D-10
 Cartesian Forces:  Max     0.048266394 RMS     0.012609059
 Leave Link  716 at Fri Sep  6 16:24:45 2019, MaxMem= 4294967296 cpu:       0.4
 (Enter /opt/g09gh/gaussian/g09/l122.exe)
 Restoring MOs from calculation   3 to rwf.
 Counterpoise: doing DCBS calculation for fragment   2 NewBq=T
 Leave Link  122 at Fri Sep  6 16:24:45 2019, MaxMem= 4294967296 cpu:       0.0
 (Enter /opt/g09gh/gaussian/g09/l301.exe)
 Basis read from rwf:  (5D, 7F)
 No pseudopotential information found on rwf file.
 Integral buffers will be    131072 words long.
 Raffenetti 1 integral format.
 Two-electron integral symmetry is turned off.
   292 basis functions,   448 primitive gaussians,   330 cartesian basis functions
    12 alpha electrons       12 beta electrons
       nuclear repulsion energy        72.0471585723 Hartrees.
 IExCor=    0 DFT=F Ex=HF Corr=None ExCW=0 ScaHFX=  1.000000
 ScaDFX=  1.000000  1.000000  1.000000  1.000000 ScalE2=  1.000000  1.000000
 IRadAn=      0 IRanWt=     -1 IRanGd=            0 ICorTp=0
 NAtoms=   14 NActive=   14 NUniq=   14 SFac= 7.50D-01 NAtFMM=   80 NAOKFM=F Big=F
 No density basis found on file   718.
 Leave Link  301 at Fri Sep  6 16:24:45 2019, MaxMem= 4294967296 cpu:       0.8
 (Enter /opt/g09gh/gaussian/g09/l302.exe)
 NPDir=0 NMtPBC=     1 NCelOv=     1 NCel=       1 NClECP=     1 NCelD=      1
         NCelK=      1 NCelE2=     1 NClLst=     1 CellRange=     0.0.
 One-electron integrals computed using PRISM.
 NBasis=   292 RedAO= T  NBF=   292
 NBsUse=   292 1.00D-06 NBFU=   292
 Leave Link  302 at Fri Sep  6 16:24:45 2019, MaxMem= 4294967296 cpu:       2.1
 (Enter /opt/g09gh/gaussian/g09/l303.exe)
 DipDrv:  MaxL=1.
 Leave Link  303 at Fri Sep  6 16:24:45 2019, MaxMem= 4294967296 cpu:       0.4
 (Enter /opt/g09gh/gaussian/g09/l401.exe)
 Initial guess read from the read-write file.
 B after Tr=     0.000000    0.000000    0.000000
         Rot=    1.000000    0.000000    0.000000    0.000000 Ang=   0.00 deg.
 Guess basis will be translated and rotated to current coordinates.
 Generating alternative initial guess.
 Harris functional with IExCor=  205 diagonalized for initial guess.
 ExpMin= 1.03D-01 ExpMax= 1.14D+04 ExpMxC= 3.89D+02 IAcc=1 IRadAn=         1 AccDes= 0.00D+00
 HarFok:  IExCor=  205 AccDes= 0.00D+00 IRadAn=         1 IDoV= 1
 ScaDFX=  1.000000  1.000000  1.000000  1.000000
 FoFCou: FMM=F IPFlag=           0 FMFlag=      100000 FMFlg1=           0
         NFxFlg=           0 DoJE=T BraDBF=F KetDBF=T FulRan=T
         Omega=  0.000000  0.000000  1.000000  0.000000  0.000000 ICntrl=     500 IOpCl=  0
         NMat0=    1 NMatS0=    1 NMatT0=    0 NMatD0=    1 NMtDS0=    0 NMtDT0=    0
         I1Cent=           4 NGrid=           0.
 Symmetry not used in FoFCou.
 Harris En= -149.384009782805    
 Leave Link  401 at Fri Sep  6 16:24:46 2019, MaxMem= 4294967296 cpu:       6.1
 (Enter /opt/g09gh/gaussian/g09/l502.exe)
 Closed shell SCF:
 Requested convergence on RMS density matrix=1.00D-08 within  64 cycles.
 Requested convergence on MAX density matrix=1.00D-06.
 Requested convergence on             energy=1.00D-06.
 No special actions if energy rises.
 Using DIIS extrapolation, IDIIS=  1040.
 Two-electron integral symmetry not used.
 Keep R1 ints in memory in canonical form, NReq=1509895500.
 IEnd=      336886 IEndB=      336886 NGot=  4294967296 MDV=  2803317417
 LenX=  2803317417 LenY=  2803208076
 Symmetry not used in FoFDir.
 MinBra= 0 MaxBra= 3 Meth= 1.
 IRaf=       0 NMat=   1 IRICut=       1 DoRegI=T DoRafI=F ISym2E= 0 JSym2E=0.

 Cycle   1  Pass 1  IDiag  1:
 E= -149.134223774999    
 DIIS: error= 8.87D-04 at cycle   1 NSaved=   1.
 NSaved= 1 IEnMin= 1 EnMin= -149.134223774999     IErMin= 1 ErrMin= 8.87D-04
 ErrMax= 8.87D-04 EMaxC= 1.00D-01 BMatC= 3.88D-04 BMatP= 3.88D-04
 IDIUse=3 WtCom= 9.91D-01 WtEn= 8.87D-03
 Coeff-Com:  0.100D+01
 Coeff-En:   0.100D+01
 Coeff:      0.100D+01
 Gap=     0.486 Goal=   None    Shift=    0.000
