 Entering Gaussian System, Link 0=g09
 Input=U_U_base.com
 Output=U_U_base.out
 Initial command:
 /opt/g09gh/gaussian/g09/l1.exe /scratch/xy3866/Gau-15635.inp -scrdir=/scratch/xy3866/
 Entering Link 1 = /opt/g09gh/gaussian/g09/l1.exe PID=     15636.
  
 Copyright (c) 1988,1990,1992,1993,1995,1998,2003,2009, Gaussian, Inc.
                  All Rights Reserved.
  
 This is part of the Gaussian(R) 09 program.  It is based on
 the Gaussian(R) 03 system (copyright 2003, Gaussian, Inc.),
 the Gaussian(R) 98 system (copyright 1998, Gaussian, Inc.),
 the Gaussian(R) 94 system (copyright 1995, Gaussian, Inc.),
 the Gaussian 92(TM) system (copyright 1992, Gaussian, Inc.),
 the Gaussian 90(TM) system (copyright 1990, Gaussian, Inc.),
 the Gaussian 88(TM) system (copyright 1988, Gaussian, Inc.),
 the Gaussian 86(TM) system (copyright 1986, Carnegie Mellon
 University), and the Gaussian 82(TM) system (copyright 1983,
 Carnegie Mellon University). Gaussian is a federally registered
 trademark of Gaussian, Inc.
  
 This software contains proprietary and confidential information,
 including trade secrets, belonging to Gaussian, Inc.
  
 This software is provided under written license and may be
 used, copied, transmitted, or stored only in accord with that
 written license.
  
 The following legend is applicable only to US Government
 contracts under FAR:
  
                    RESTRICTED RIGHTS LEGEND
  
 Use, reproduction and disclosure by the US Government is
 subject to restrictions as set forth in subparagraphs (a)
 and (c) of the Commercial Computer Software - Restricted
 Rights clause in FAR 52.227-19.
  
 Gaussian, Inc.
 340 Quinnipiac St., Bldg. 40, Wallingford CT 06492
  
  
 ---------------------------------------------------------------
 Warning -- This program may not be used in any manner that
 competes with the business of Gaussian, Inc. or will provide
 assistance to any competitor of Gaussian, Inc.  The licensee
 of this program is prohibited from giving any competitor of
 Gaussian, Inc. access to this program.  By using this program,
 the user acknowledges that Gaussian, Inc. is engaged in the
 business of creating and licensing software in the field of
 computational chemistry and represents and warrants to the
 licensee that it is not a competitor of Gaussian, Inc. and that
 it will not use this program in any manner prohibited above.
 ---------------------------------------------------------------
  

 Cite this work as:
 Gaussian 09, Revision A.02,
 M. J. Frisch, G. W. Trucks, H. B. Schlegel, G. E. Scuseria, 
 M. A. Robb, J. R. Cheeseman, G. Scalmani, V. Barone, B. Mennucci, 
 G. A. Petersson, H. Nakatsuji, M. Caricato, X. Li, H. P. Hratchian, 
 A. F. Izmaylov, J. Bloino, G. Zheng, J. L. Sonnenberg, M. Hada, 
 M. Ehara, K. Toyota, R. Fukuda, J. Hasegawa, M. Ishida, T. Nakajima, 
 Y. Honda, O. Kitao, H. Nakai, T. Vreven, J. A. Montgomery, Jr., 
 J. E. Peralta, F. Ogliaro, M. Bearpark, J. J. Heyd, E. Brothers, 
 K. N. Kudin, V. N. Staroverov, R. Kobayashi, J. Normand, 
 K. Raghavachari, A. Rendell, J. C. Burant, S. S. Iyengar, J. Tomasi, 
 M. Cossi, N. Rega, J. M. Millam, M. Klene, J. E. Knox, J. B. Cross, 
 V. Bakken, C. Adamo, J. Jaramillo, R. Gomperts, R. E. Stratmann, 
 O. Yazyev, A. J. Austin, R. Cammi, C. Pomelli, J. W. Ochterski, 
 R. L. Martin, K. Morokuma, V. G. Zakrzewski, G. A. Voth, 
 P. Salvador, J. J. Dannenberg, S. Dapprich, A. D. Daniels, 
 O. Farkas, J. B. Foresman, J. V. Ortiz, J. Cioslowski, 
 and D. J. Fox, Gaussian, Inc., Wallingford CT, 2009.
 
 ******************************************
 Gaussian 09:  EM64L-G09RevA.02 11-Jun-2009
                 9-Sep-2019 
 ******************************************
 %NoSave
 %chk=U_U_base.chk
 %nproc=8
 Will use up to    8 processors via shared memory.
 %Mem=32GB
 ----------------------------------------------------------------------
 #p MP2/cc-pvtz counterpoise=2 IOP(5/13=1) Symmetry=None MaxDisk=100GB 
 Opt
 ----------------------------------------------------------------------
 1/18=20,19=15,38=1,62=2/1,3;
 2/9=110,12=2,15=1,17=6,18=5,40=1/2;
 1/18=20,19=15,38=1,53=5172,62=2,63=100/22;
 3/5=16,6=1,11=9,16=1,25=1,30=1,71=1/1,2,3;
 4//1;
 5/5=2,13=1,38=5/2;
 8/6=4,10=1/1;
 9/15=2,16=-3/6;
 10/5=1,31=1/2;
 6/7=2,8=2,9=2,10=2/1;
 7/7=1,12=2,30=1,33=-1/1,2,3,16;
 1/18=20,19=15,53=4052,62=2,63=101/22;
 3/5=7,6=11,11=9,16=1,25=1,30=1,71=1,82=7/1,2,3;
 4//1;
 5/5=2,13=1,38=5/2;
 8/6=4,10=1/1;
 9/15=2,16=-3/6;
 10/5=1,31=1/2;
 6/7=2,8=2,9=2,10=2/1;
 7/7=1,12=2,30=1,33=-1/1,2,3,16;
 1/18=20,19=15,53=3042,62=2,63=102/22;
 3/5=7,6=11,11=9,16=1,25=1,30=1,71=1,82=7/1,2,3;
 4//1;
 5/5=2,13=1,38=5/2;
 8/6=4,10=1/1;
 9/15=2,16=-3/6;
 10/5=1,31=1/2;
 6/7=2,8=2,9=2,10=2/1;
 7/7=1,12=2,30=1,33=-1/1,2,3,16;
 1/18=20,19=15,53=2032,62=2,63=103/22;
 3/5=7,6=11,11=9,16=1,25=1,30=1,71=1,82=7/1,2,3;
 4//1;
 5/5=2,13=1,38=5/2;
 8/6=4,10=1/1;
 9/15=2,16=-3/6;
 10/5=1,31=1/2;
 6/7=2,8=2,9=2,10=2/1;
 7/7=1,12=2,30=1,33=-1/1,2,3,16;
 1/18=20,19=15,53=1022,62=2,63=104/22;
 3/5=7,6=11,11=9,16=1,25=1,30=1,71=1,82=7/1,2,3;
 4//1;
 5/5=2,13=1,38=5/2;
 8/6=4,10=1/1;
 9/15=2,16=-3/6;
 10/5=1,31=1/2;
 6/7=2,8=2,9=2,10=2/1;
 7/7=1,12=2,30=1,33=-1/1,2,3,16;
 1/18=20,19=15,53=5015,62=2,63=105/22;
 7/9=1,44=-1/16;
 1/18=20,19=15,62=2,63=100/3(2);
 2/9=110,15=1/2;
 99//99;
 2/9=110,15=1/2;
 1/18=20,19=15,53=5173,62=2,63=100/22;
 3/5=7,6=11,11=9,16=1,25=1,30=1,71=1,82=7/1,2,3;
 4/5=5,16=3/1;
 5/5=2,13=1,38=5/2;
 8/6=4,10=1/1;
 9/15=2,16=-3/6;
 10/5=1,31=1/2;
 7/7=1,12=2,30=1,33=-1/1,2,3,16;
 1/18=20,19=15,53=4053,62=2,63=101/22;
 3/5=7,6=11,11=9,16=1,25=1,30=1,71=1,82=7/1,2,3;
 4/5=5,16=3/1;
 5/5=2,13=1,38=5/2;
 8/6=4,10=1/1;
 9/15=2,16=-3/6;
 10/5=1,31=1/2;
 7/7=1,12=2,30=1,33=-1/1,2,3,16;
 1/18=20,19=15,53=3043,62=2,63=102/22;
 3/5=7,6=11,11=9,16=1,25=1,30=1,71=1,82=7/1,2,3;
 4/5=5,16=3/1;
 5/5=2,13=1,38=5/2;
 8/6=4,10=1/1;
 9/15=2,16=-3/6;
 10/5=1,31=1/2;
 7/7=1,12=2,30=1,33=-1/1,2,3,16;
 1/18=20,19=15,53=2033,62=2,63=103/22;
 3/5=7,6=11,11=9,16=1,25=1,30=1,71=1,82=7/1,2,3;
 4/5=5,16=3/1;
 5/5=2,13=1,38=5/2;
 8/6=4,10=1/1;
 9/15=2,16=-3/6;
 10/5=1,31=1/2;
 7/7=1,12=2,30=1,33=-1/1,2,3,16;
 1/18=20,19=15,53=1024,62=2,63=104/22;
 3/5=7,6=11,11=9,16=1,25=1,30=1,71=1,82=7/1,2,3;
 4/5=5,16=3/1;
 5/5=2,13=1,38=5/2;
 8/6=4,10=1/1;
 9/15=2,16=-3/6;
 10/5=1,31=1/2;
 7/7=1,12=2,30=1,33=-1/1,2,3,16;
 1/18=20,19=15,53=5015,62=2,63=105/22;
 7/9=1,44=-1/16;
 1/18=20,19=15,62=2,63=100/3(-43);
 2/9=110,15=1/2;
 6/7=2,8=2,9=2,10=2/1;
 99//99;
 Leave Link    1 at Mon Sep  9 17:44:15 2019, MaxMem= 4294967296 cpu:       0.4
 (Enter /opt/g09gh/gaussian/g09/l101.exe)
 ---------
 Opt=tight
 ---------
 Symbolic Z-matrix:
 Charge =  0 Multiplicity = 1 in supermolecule
 Charge =  0 Multiplicity = 1 in fragment  1.
 Charge =  0 Multiplicity = 1 in fragment  2.
 O(Fragment=1)         3.64175   0.29074   0.0001 
 C(Fragment=1)         3.14524  -0.81784  -0.00008 
 N(Fragment=1)         3.91521  -1.97453   0.0001 
 C(Fragment=1)         3.38893  -3.23598   0.00009 
 C(Fragment=1)         2.05695  -3.44456  -0.00003 
 C(Fragment=1)         1.1526   -2.30814  -0.00021 
 N(Fragment=1)         1.7888   -1.06756  -0.00015 
 O(Fragment=1)        -0.06955  -2.38923  -0.0002 
 H(Fragment=1)         1.64098  -4.43702   0.00001 
 H(Fragment=1)         4.90971  -1.82216   0.00024 
 H(Fragment=1)         1.1852   -0.23849  -0.00015 
 H(Fragment=1)         4.10598  -4.0436    0.00023 
 O(Fragment=2)         0.07248   1.28167  -0.00021 
 C(Fragment=2)        -1.15292   1.32954  -0.00019 
 N(Fragment=2)        -1.79407   2.5685   -0.00003 
 C(Fragment=2)        -3.15087   2.83087   0.00018 
 N(Fragment=2)        -3.91464   1.67805   0.00013 
 C(Fragment=2)        -3.38319   0.41447   0.00002 
 C(Fragment=2)        -2.05215   0.19509  -0.00009 
 O(Fragment=2)        -3.62655   3.94855   0.00015 
 H(Fragment=2)        -1.63128  -0.79828  -0.00013 
 H(Fragment=2)        -4.91026   1.82495   0.00018 
 H(Fragment=2)        -1.19432   3.3825   -0.00008 
 H(Fragment=2)        -4.10161  -0.39166   0.00003 
 
 NAtoms=     24 NQM=     24 NQMF=      0 NMic=      0 NMicF=      0 NTot=     24.
                    Isotopes and Nuclear Properties:
 (Nuclear quadrupole moments (NQMom) in fm**2, nuclear magnetic moments (NMagM)
  in nuclear magnetons)

  Atom         1           2           3           4           5           6           7           8           9          10
 IAtWgt=          16          12          14          12          12          12          14          16           1           1
 AtmWgt=  15.9949146  12.0000000  14.0030740  12.0000000  12.0000000  12.0000000  14.0030740  15.9949146   1.0078250   1.0078250
 NucSpn=           0           0           2           0           0           0           2           0           1           1
 AtZEff=   0.0000000   0.0000000   0.0000000   0.0000000   0.0000000   0.0000000   0.0000000   0.0000000   0.0000000   0.0000000
 NQMom=    0.0000000   0.0000000   2.0440000   0.0000000   0.0000000   0.0000000   2.0440000   0.0000000   0.0000000   0.0000000
 NMagM=    0.0000000   0.0000000   0.4037610   0.0000000   0.0000000   0.0000000   0.4037610   0.0000000   2.7928460   2.7928460

  Atom        11          12          13          14          15          16          17          18          19          20
 IAtWgt=           1           1          16          12          14          12          14          12          12          16
 AtmWgt=   1.0078250   1.0078250  15.9949146  12.0000000  14.0030740  12.0000000  14.0030740  12.0000000  12.0000000  15.9949146
 NucSpn=           1           1           0           0           2           0           2           0           0           0
 AtZEff=   0.0000000   0.0000000   0.0000000   0.0000000   0.0000000   0.0000000   0.0000000   0.0000000   0.0000000   0.0000000
 NQMom=    0.0000000   0.0000000   0.0000000   0.0000000   2.0440000   0.0000000   2.0440000   0.0000000   0.0000000   0.0000000
 NMagM=    2.7928460   2.7928460   0.0000000   0.0000000   0.4037610   0.0000000   0.4037610   0.0000000   0.0000000   0.0000000

  Atom        21          22          23          24
 IAtWgt=           1           1           1           1
 AtmWgt=   1.0078250   1.0078250   1.0078250   1.0078250
 NucSpn=           1           1           1           1
 AtZEff=   0.0000000   0.0000000   0.0000000   0.0000000
 NQMom=    0.0000000   0.0000000   0.0000000   0.0000000
 NMagM=    2.7928460   2.7928460   2.7928460   2.7928460
 Leave Link  101 at Mon Sep  9 17:44:15 2019, MaxMem= 4294967296 cpu:       1.5
 (Enter /opt/g09gh/gaussian/g09/l103.exe)

 GradGradGradGradGradGradGradGradGradGradGradGradGradGradGradGradGradGrad
 Berny optimization.
 Initialization pass.
                           ----------------------------
                           !    Initial Parameters    !
                           ! (Angstroms and Degrees)  !
 --------------------------                            --------------------------
 ! Name  Definition              Value          Derivative Info.                !
 --------------------------------------------------------------------------------
 ! R1    R(1,2)                  1.2147         estimate D2E/DX2                !
 ! R2    R(2,3)                  1.3895         estimate D2E/DX2                !
 ! R3    R(2,7)                  1.3792         estimate D2E/DX2                !
 ! R4    R(3,4)                  1.3668         estimate D2E/DX2                !
 ! R5    R(3,10)                 1.0061         estimate D2E/DX2                !
 ! R6    R(4,5)                  1.3482         estimate D2E/DX2                !
 ! R7    R(4,12)                 1.08           estimate D2E/DX2                !
 ! R8    R(5,6)                  1.4523         estimate D2E/DX2                !
 ! R9    R(5,9)                  1.0761         estimate D2E/DX2                !
 ! R10   R(6,7)                  1.3942         estimate D2E/DX2                !
 ! R11   R(6,8)                  1.2248         estimate D2E/DX2                !
 ! R12   R(7,11)                 1.0255         estimate D2E/DX2                !
 ! R13   R(8,21)                 2.2294         estimate D2E/DX2                !
 ! R14   R(11,13)                1.8839         estimate D2E/DX2                !
 ! R15   R(13,14)                1.2263         estimate D2E/DX2                !
 ! R16   R(14,15)                1.395          estimate D2E/DX2                !
 ! R17   R(14,19)                1.4476         estimate D2E/DX2                !
 ! R18   R(15,16)                1.3819         estimate D2E/DX2                !
 ! R19   R(15,23)                1.0111         estimate D2E/DX2                !
 ! R20   R(16,17)                1.3829         estimate D2E/DX2                !
 ! R21   R(16,20)                1.2147         estimate D2E/DX2                !
 ! R22   R(17,18)                1.3708         estimate D2E/DX2                !
 ! R23   R(17,22)                1.0064         estimate D2E/DX2                !
 ! R24   R(18,19)                1.349          estimate D2E/DX2                !
 ! R25   R(18,24)                1.0798         estimate D2E/DX2                !
 ! R26   R(19,21)                1.0788         estimate D2E/DX2                !
 ! A1    A(1,2,3)              122.2231         estimate D2E/DX2                !
 ! A2    A(1,2,7)              124.558          estimate D2E/DX2                !
 ! A3    A(3,2,7)              113.2189         estimate D2E/DX2                !
 ! A4    A(2,3,4)              123.704          estimate D2E/DX2                !
 ! A5    A(2,3,10)             114.9393         estimate D2E/DX2                !
 ! A6    A(4,3,10)             121.3567         estimate D2E/DX2                !
 ! A7    A(3,4,5)              121.5455         estimate D2E/DX2                !
 ! A8    A(3,4,12)             115.7539         estimate D2E/DX2                !
 ! A9    A(5,4,12)             122.7006         estimate D2E/DX2                !
 ! A10   A(4,5,6)              119.6128         estimate D2E/DX2                !
 ! A11   A(4,5,9)              121.6403         estimate D2E/DX2                !
 ! A12   A(6,5,9)              118.7469         estimate D2E/DX2                !
 ! A13   A(5,6,7)              114.3374         estimate D2E/DX2                !
 ! A14   A(5,6,8)              124.7164         estimate D2E/DX2                !
 ! A15   A(7,6,8)              120.9462         estimate D2E/DX2                !
 ! A16   A(2,7,6)              127.5814         estimate D2E/DX2                !
 ! A17   A(2,7,11)             115.6252         estimate D2E/DX2                !
 ! A18   A(6,7,11)             116.7934         estimate D2E/DX2                !
 ! A19   A(6,8,21)             130.6727         estimate D2E/DX2                !
 ! A20   A(11,13,14)           128.4407         estimate D2E/DX2                !
 ! A21   A(13,14,15)           119.5987         estimate D2E/DX2                !
 ! A22   A(13,14,19)           126.165          estimate D2E/DX2                !
 ! A23   A(15,14,19)           114.2363         estimate D2E/DX2                !
 ! A24   A(14,15,16)           128.306          estimate D2E/DX2                !
 ! A25   A(14,15,23)           116.2564         estimate D2E/DX2                !
 ! A26   A(16,15,23)           115.4376         estimate D2E/DX2                !
 ! A27   A(15,16,17)           112.5803         estimate D2E/DX2                !
 ! A28   A(15,16,20)           123.9992         estimate D2E/DX2                !
 ! A29   A(17,16,20)           123.4205         estimate D2E/DX2                !
 ! A30   A(16,17,18)           123.664          estimate D2E/DX2                !
 ! A31   A(16,17,22)           115.1317         estimate D2E/DX2                !
 ! A32   A(18,17,22)           121.2043         estimate D2E/DX2                !
 ! A33   A(17,18,19)           122.17           estimate D2E/DX2                !
 ! A34   A(17,18,24)           115.482          estimate D2E/DX2                !
 ! A35   A(19,18,24)           122.348          estimate D2E/DX2                !
 ! A36   A(14,19,18)           119.0433         estimate D2E/DX2                !
 ! A37   A(14,19,21)           118.6363         estimate D2E/DX2                !
 ! A38   A(18,19,21)           122.3204         estimate D2E/DX2                !
 ! A39   A(8,21,19)            158.4925         estimate D2E/DX2                !
 ! A40   L(7,11,13,2,-1)       180.1468         estimate D2E/DX2                !
 ! A41   L(7,11,13,2,-2)       179.9972         estimate D2E/DX2                !
 ! D1    D(1,2,3,4)            179.9908         estimate D2E/DX2                !
 ! D2    D(1,2,3,10)            -0.0095         estimate D2E/DX2                !
 ! D3    D(7,2,3,4)              0.0058         estimate D2E/DX2                !
 ! D4    D(7,2,3,10)          -179.9945         estimate D2E/DX2                !
 ! D5    D(1,2,7,6)           -179.9928         estimate D2E/DX2                !
 ! D6    D(1,2,7,11)             0.0073         estimate D2E/DX2                !
 ! D7    D(3,2,7,6)             -0.0081         estimate D2E/DX2                !
 ! D8    D(3,2,7,11)           179.9919         estimate D2E/DX2                !
 ! D9    D(2,3,4,5)             -0.0033         estimate D2E/DX2                !
 ! D10   D(2,3,4,12)           179.999          estimate D2E/DX2                !
 ! D11   D(10,3,4,5)           179.997          estimate D2E/DX2                !
 ! D12   D(10,3,4,12)           -0.0007         estimate D2E/DX2                !
 ! D13   D(3,4,5,6)              0.0021         estimate D2E/DX2                !
 ! D14   D(3,4,5,9)           -179.9967         estimate D2E/DX2                !
 ! D15   D(12,4,5,6)           179.9996         estimate D2E/DX2                !
 ! D16   D(12,4,5,9)             0.0009         estimate D2E/DX2                !
 ! D17   D(4,5,6,7)             -0.0037         estimate D2E/DX2                !
 ! D18   D(4,5,6,8)           -179.9925         estimate D2E/DX2                !
 ! D19   D(9,5,6,7)            179.9951         estimate D2E/DX2                !
 ! D20   D(9,5,6,8)              0.0063         estimate D2E/DX2                !
 ! D21   D(5,6,7,2)              0.0072         estimate D2E/DX2                !
 ! D22   D(5,6,7,11)          -179.9928         estimate D2E/DX2                !
 ! D23   D(8,6,7,2)            179.9965         estimate D2E/DX2                !
 ! D24   D(8,6,7,11)            -0.0035         estimate D2E/DX2                !
 ! D25   D(5,6,8,21)           179.9895         estimate D2E/DX2                !
 ! D26   D(7,6,8,21)             0.0013         estimate D2E/DX2                !
 ! D27   D(2,7,13,14)         -179.9956         estimate D2E/DX2                !
 ! D28   D(6,7,13,14)            0.0055         estimate D2E/DX2                !
 ! D29   D(6,8,21,19)           -0.0011         estimate D2E/DX2                !
 ! D30   D(11,13,14,15)        179.9896         estimate D2E/DX2                !
 ! D31   D(11,13,14,19)          0.0016         estimate D2E/DX2                !
 ! D32   D(13,14,15,16)       -179.9915         estimate D2E/DX2                !
 ! D33   D(13,14,15,23)          0.0094         estimate D2E/DX2                !
 ! D34   D(19,14,15,16)         -0.0021         estimate D2E/DX2                !
 ! D35   D(19,14,15,23)        179.9988         estimate D2E/DX2                !
 ! D36   D(13,14,19,18)        179.9954         estimate D2E/DX2                !
 ! D37   D(13,14,19,21)         -0.007          estimate D2E/DX2                !
 ! D38   D(15,14,19,18)          0.0068         estimate D2E/DX2                !
 ! D39   D(15,14,19,21)       -179.9956         estimate D2E/DX2                !
 ! D40   D(14,15,16,17)         -0.004          estimate D2E/DX2                !
 ! D41   D(14,15,16,20)       -179.9902         estimate D2E/DX2                !
 ! D42   D(23,15,16,17)        179.9951         estimate D2E/DX2                !
 ! D43   D(23,15,16,20)          0.0089         estimate D2E/DX2                !
 ! D44   D(15,16,17,18)          0.0058         estimate D2E/DX2                !
 ! D45   D(15,16,17,22)       -179.994          estimate D2E/DX2                !
 ! D46   D(20,16,17,18)        179.9921         estimate D2E/DX2                !
 ! D47   D(20,16,17,22)         -0.0077         estimate D2E/DX2                !
 ! D48   D(16,17,18,19)         -0.0013         estimate D2E/DX2                !
 ! D49   D(16,17,18,24)        179.9974         estimate D2E/DX2                !
 ! D50   D(22,17,18,19)        179.9985         estimate D2E/DX2                !
 ! D51   D(22,17,18,24)         -0.0028         estimate D2E/DX2                !
 ! D52   D(17,18,19,14)         -0.0055         estimate D2E/DX2                !
 ! D53   D(17,18,19,21)        179.997          estimate D2E/DX2                !
 ! D54   D(24,18,19,14)        179.996          estimate D2E/DX2                !
 ! D55   D(24,18,19,21)         -0.0015         estimate D2E/DX2                !
 ! D56   D(14,19,21,8)           0.0073         estimate D2E/DX2                !
 ! D57   D(18,19,21,8)        -179.9952         estimate D2E/DX2                !
 --------------------------------------------------------------------------------
 Trust Radius=3.00D-01 FncErr=1.00D-07 GrdErr=1.00D-07
 Number of steps in this run= 134 maximum allowed number of steps= 144.
 GradGradGradGradGradGradGradGradGradGradGradGradGradGradGradGradGradGrad

 Leave Link  103 at Mon Sep  9 17:44:16 2019, MaxMem= 4294967296 cpu:       0.1
 (Enter /opt/g09gh/gaussian/g09/l202.exe)
                          Input orientation:                          
 ---------------------------------------------------------------------
 Center     Atomic      Atomic             Coordinates (Angstroms)
 Number     Number       Type             X           Y           Z
 ---------------------------------------------------------------------
      1          8           0        3.641754    0.290742    0.000097
      2          6           0        3.145241   -0.817842   -0.000081
      3          7           0        3.915207   -1.974534    0.000101
      4          6           0        3.388934   -3.235982    0.000092
      5          6           0        2.056954   -3.444559   -0.000032
      6          6           0        1.152599   -2.308140   -0.000206
      7          7           0        1.788804   -1.067562   -0.000145
      8          8           0       -0.069552   -2.389232   -0.000196
      9          1           0        1.640975   -4.437017    0.000014
     10          1           0        4.909705   -1.822161    0.000239
     11          1           0        1.185200   -0.238493   -0.000148
     12          1           0        4.105979   -4.043599    0.000229
     13          8           0        0.072475    1.281669   -0.000210
     14          6           0       -1.152916    1.329544   -0.000192
     15          7           0       -1.794066    2.568495   -0.000026
     16          6           0       -3.150874    2.830874    0.000182
     17          7           0       -3.914637    1.678050    0.000132
     18          6           0       -3.383193    0.414471    0.000016
     19          6           0       -2.052147    0.195094   -0.000085
     20          8           0       -3.626551    3.948546    0.000145
     21          1           0       -1.631278   -0.798277   -0.000129
     22          1           0       -4.910260    1.824953    0.000184
     23          1           0       -1.194315    3.382504   -0.000076
     24          1           0       -4.101605   -0.391656    0.000034
 ---------------------------------------------------------------------
                    Distance matrix (angstroms):
                    1          2          3          4          5
     1  O    0.000000
     2  C    1.214695   0.000000
     3  N    2.281721   1.389527   0.000000
     4  C    3.535774   2.430388   1.366826   0.000000
     5  C    4.057593   2.843239   2.369405   1.348212   0.000000
     6  C    3.598622   2.488295   2.782678   2.421174   1.452345
     7  N    2.297480   1.379232   2.311750   2.694895   2.392074
     8  O    4.577778   3.578290   4.006280   3.560634   2.373972
     9  H    5.133695   3.919342   3.352007   2.120813   1.076109
    10  H    2.464155   2.030268   1.006103   2.076448   3.281823
    11  H    2.512916   2.043870   3.235240   3.720401   3.322471
    12  H    4.359130   3.365788   2.077841   1.079999   2.134796
    13  O    3.704280   3.721537   5.036809   5.604290   5.125952
    14  C    4.905912   4.804729   6.050025   6.439909   5.752854
    15  N    5.893751   5.988659   7.296226   7.781738   7.140530
    16  C    7.252039   7.276963   8.545259   8.920529   8.154908
    17  N    7.682686   7.488081   8.639897   8.802832   7.867720
    18  C    7.026037   6.643722   7.679452   7.693342   6.669881
    19  C    5.694704   5.295175   6.349535   6.432546   5.489243
    20  O    8.136817   8.281040   9.589629  10.041637   9.325247
    21  H    5.384313   4.776559   5.669839   5.580765   4.539368
    22  H    8.688541   8.477940   9.608588   9.720580   8.735550
    23  H    5.739909   6.039425   7.403045   8.050499   7.561715
    24  H    7.773370   7.259367   8.171584   8.012388   6.873723
                    6          7          8          9         10
     6  C    0.000000
     7  N    1.394199   0.000000
     8  O    1.224838   2.280416   0.000000
     9  H    2.184177   3.372696   2.668207   0.000000
    10  H    3.788406   3.210832   5.011444   4.185937   0.000000
    11  H    2.069904   1.025521   2.489996   4.223190   4.047214
    12  H    3.425532   3.771750   4.491324   2.496202   2.362364
    13  O    3.748786   2.909411   3.673647   5.929887   5.747395
    14  C    4.306756   3.794711   3.873367   6.407734   6.832907
    15  N    5.697754   5.104691   5.249096   7.802353   8.013639
    16  C    6.702936   6.292712   6.061687   8.705404   9.307184
    17  N    6.447216   6.329899   5.597094   8.261893   9.493181
    18  C    5.290181   5.380146   4.340618   6.984211   8.589219
    19  C    4.066519   4.043168   3.257211   5.924154   7.248221
    20  O    7.873144   7.381559   7.267714   9.902752  10.303821
    21  H    3.166963   3.430667   2.229378   4.893676   6.620634
    22  H    7.337623   7.296856   6.418085   9.062613  10.475359
    23  H    6.155602   5.357433   5.880309   8.317679   8.021695
    24  H    5.592814   5.929061   4.499751   7.024398   9.124147
                   11         12         13         14         15
    11  H    0.000000
    12  H    4.796851   0.000000
    13  O    1.883892   6.680392   0.000000
    14  C    2.815231   7.518420   1.226326   0.000000
    15  N    4.093313   8.861733   2.267134   1.395017   0.000000
    16  C    5.312490   9.996014   3.576313   2.499165   1.381945
    17  N    5.448071   9.852286   4.006767   2.783623   2.299938
    18  C    4.614821   8.715623   3.562818   2.410704   2.676779
    19  C    3.266254   7.475897   2.386349   1.447616   2.387391
    20  O    6.378420  11.120540   4.560156   3.602505   2.294023
    21  H    2.871569   6.591527   2.688671   2.180929   3.370705
    22  H    6.435250  10.757903   5.012266   3.789863   3.203673
    23  H    4.332864   9.123602   2.453215   2.053377   1.011094
    24  H    5.289023   8.983380   4.496995   3.414278   3.753296
                   16         17         18         19         20
    16  C    0.000000
    17  N    1.382873   0.000000
    18  C    2.427545   1.370790   0.000000
    19  C    2.855615   2.380762   1.349003   0.000000
    20  O    1.214685   2.288700   3.542444   4.070276   0.000000
    21  H    3.934452   3.368371   2.130719   1.078850   5.149121
    22  H    2.026651   1.006402   2.078796   3.290175   2.481442
    23  H    2.032835   3.210189   3.687873   3.300827   2.497234
    24  H    3.359850   2.078134   1.079795   2.131796   4.366123
                   21         22         23         24
    21  H    0.000000
    22  H    4.199174   0.000000
    23  H    4.203554   4.029170   0.000000
    24  H    2.503569   2.359508   4.764097   0.000000
 Symmetry turned off by external request.
 Stoichiometry    C8H8N4O4
 Framework group  C1[X(C8H8N4O4)]
 Deg. of freedom    66
 Full point group                 C1      NOp   1
 Rotational constants (GHZ):      1.3711115      0.2109119      0.1827936
 Leave Link  202 at Mon Sep  9 17:44:16 2019, MaxMem= 4294967296 cpu:       0.1
 (Enter /opt/g09gh/gaussian/g09/l122.exe)
 Restoring MOs from calculation   1 to rwf and chk.
 Leave Link  122 at Mon Sep  9 17:44:16 2019, MaxMem= 4294967296 cpu:       0.7
 (Enter /opt/g09gh/gaussian/g09/l301.exe)
 Standard basis: CC-pVTZ (5D, 7F)
 Ernie: Thresh=  0.10000D-02 Tol=  0.10000D-05 Strict=F.
 Ernie:  48 primitive shells out of 480 were deleted.
 Integral buffers will be    131072 words long.
 Raffenetti 1 integral format.
 Two-electron integral symmetry is turned off.
   592 basis functions,   968 primitive gaussians,   680 cartesian basis functions
    58 alpha electrons       58 beta electrons
       nuclear repulsion energy      1023.9868558894 Hartrees.
 IExCor=    0 DFT=F Ex=HF Corr=None ExCW=0 ScaHFX=  1.000000
 ScaDFX=  1.000000  1.000000  1.000000  1.000000 ScalE2=  1.000000  1.000000
 IRadAn=      0 IRanWt=     -1 IRanGd=            0 ICorTp=0
 NAtoms=   24 NActive=   24 NUniq=   24 SFac= 7.50D-01 NAtFMM=   80 NAOKFM=F Big=F
 Leave Link  301 at Mon Sep  9 17:44:16 2019, MaxMem= 4294967296 cpu:       0.8
 (Enter /opt/g09gh/gaussian/g09/l302.exe)
 NPDir=0 NMtPBC=     1 NCelOv=     1 NCel=       1 NClECP=     1 NCelD=      1
         NCelK=      1 NCelE2=     1 NClLst=     1 CellRange=     0.0.
 One-electron integrals computed using PRISM.
 NBasis=   592 RedAO= T  NBF=   592
 NBsUse=   592 1.00D-06 NBFU=   592
 Leave Link  302 at Mon Sep  9 17:44:18 2019, MaxMem= 4294967296 cpu:      11.6
 (Enter /opt/g09gh/gaussian/g09/l303.exe)
 DipDrv:  MaxL=1.
 Leave Link  303 at Mon Sep  9 17:44:18 2019, MaxMem= 4294967296 cpu:       1.8
 (Enter /opt/g09gh/gaussian/g09/l401.exe)
 Harris functional with IExCor=  205 diagonalized for initial guess.
 ExpMin= 1.03D-01 ExpMax= 1.53D+04 ExpMxC= 5.22D+02 IAcc=1 IRadAn=         1 AccDes= 0.00D+00
 HarFok:  IExCor=  205 AccDes= 0.00D+00 IRadAn=         1 IDoV= 1
 ScaDFX=  1.000000  1.000000  1.000000  1.000000
 FoFCou: FMM=F IPFlag=           0 FMFlag=      100000 FMFlg1=           0
         NFxFlg=           0 DoJE=T BraDBF=F KetDBF=T FulRan=T
         Omega=  0.000000  0.000000  1.000000  0.000000  0.000000 ICntrl=     500 IOpCl=  0
         NMat0=    1 NMatS0=    1 NMatT0=    0 NMatD0=    1 NMtDS0=    0 NMtDT0=    0
         I1Cent=           4 NGrid=           0.
 Symmetry not used in FoFCou.
 Harris En= -826.004145364991    
 Leave Link  401 at Mon Sep  9 17:44:20 2019, MaxMem= 4294967296 cpu:      19.8
 (Enter /opt/g09gh/gaussian/g09/l502.exe)
 Closed shell SCF:
 Requested convergence on RMS density matrix=1.00D-08 within  64 cycles.
 Requested convergence on MAX density matrix=1.00D-06.
 Requested convergence on             energy=1.00D-06.
 No special actions if energy rises.
 Using DIIS extrapolation, IDIIS=  1040.
 Two-electron integral symmetry not used.
 IEnd=     1402306 IEndB=     1402306 NGot=  4294967296 MDV=  4294032295
 LenX=  4294032295 LenY=  4293569215
 Fock matrices will be formed incrementally for  20 cycles.
 Integral accuracy reduced to 1.0D-05 until final iterations.

 Cycle   1  Pass 0  IDiag  1:
 FoFCou: FMM=F IPFlag=           0 FMFlag=      100000 FMFlg1=           0
         NFxFlg=           0 DoJE=F BraDBF=F KetDBF=F FulRan=T
         Omega=  0.000000  0.000000  1.000000  0.000000  0.000000 ICntrl=       0 IOpCl=  0
         NMat0=    1 NMatS0=    1 NMatT0=    0 NMatD0=    1 NMtDS0=    0 NMtDT0=    0
         I1Cent=           0 NGrid=           0.
 Symmetry not used in FoFCou.
 E= -824.584103372361    
 DIIS: error= 3.10D-02 at cycle   1 NSaved=   1.
 NSaved= 1 IEnMin= 1 EnMin= -824.584103372361     IErMin= 1 ErrMin= 3.10D-02
 ErrMax= 3.10D-02 EMaxC= 1.00D-01 BMatC= 1.60D+00 BMatP= 1.60D+00
 IDIUse=3 WtCom= 6.90D-01 WtEn= 3.10D-01
 Coeff-Com:  0.100D+01
 Coeff-En:   0.100D+01
 Coeff:      0.100D+01
 Gap=     0.428 Goal=   None    Shift=    0.000
 GapD=    0.428 DampG=2.000 DampE=0.500 DampFc=1.0000 IDamp=-1.
 RMSDP=1.63D-03 MaxDP=1.45D-01              OVMax= 1.57D-01

 Cycle   2  Pass 0  IDiag  1:
 RMSU=  1.15D-03    CP:  1.01D+00
 E= -825.109379651190     Delta-E=       -0.525276278829 Rises=F Damp=F
 DIIS: error= 1.35D-02 at cycle   2 NSaved=   2.
 NSaved= 2 IEnMin= 2 EnMin= -825.109379651190     IErMin= 2 ErrMin= 1.35D-02
 ErrMax= 1.35D-02 EMaxC= 1.00D-01 BMatC= 2.08D-01 BMatP= 1.60D+00
 IDIUse=3 WtCom= 8.65D-01 WtEn= 1.35D-01
 Coeff-Com:  0.187D+00 0.813D+00
 Coeff-En:   0.000D+00 0.100D+01
 Coeff:      0.162D+00 0.838D+00
 Gap=     0.494 Goal=   None    Shift=    0.000
 RMSDP=8.46D-04 MaxDP=9.10D-02 DE=-5.25D-01 OVMax= 7.05D-02

 Cycle   3  Pass 0  IDiag  1:
 RMSU=  3.22D-04    CP:  1.01D+00  5.63D-01
 E= -825.218993709886     Delta-E=       -0.109614058696 Rises=F Damp=F
 DIIS: error= 9.00D-03 at cycle   3 NSaved=   3.
 NSaved= 3 IEnMin= 3 EnMin= -825.218993709886     IErMin= 3 ErrMin= 9.00D-03
 ErrMax= 9.00D-03 EMaxC= 1.00D-01 BMatC= 4.34D-02 BMatP= 2.08D-01
 IDIUse=3 WtCom= 9.10D-01 WtEn= 9.00D-02
 Coeff-Com: -0.199D-01 0.291D+00 0.729D+00
 Coeff-En:   0.000D+00 0.000D+00 0.100D+01
 Coeff:     -0.181D-01 0.265D+00 0.753D+00
 Gap=     0.447 Goal=   None    Shift=    0.000
 RMSDP=2.02D-04 MaxDP=1.30D-02 DE=-1.10D-01 OVMax= 3.32D-02

 Cycle   4  Pass 0  IDiag  1:
 RMSU=  8.63D-05    CP:  1.01D+00  6.52D-01  8.46D-01
 E= -825.246109781438     Delta-E=       -0.027116071552 Rises=F Damp=F
 DIIS: error= 2.38D-03 at cycle   4 NSaved=   4.
 NSaved= 4 IEnMin= 4 EnMin= -825.246109781438     IErMin= 4 ErrMin= 2.38D-03
 ErrMax= 2.38D-03 EMaxC= 1.00D-01 BMatC= 2.25D-03 BMatP= 4.34D-02
 IDIUse=3 WtCom= 9.76D-01 WtEn= 2.38D-02
 Coeff-Com: -0.126D-01 0.562D-01 0.260D+00 0.696D+00
 Coeff-En:   0.000D+00 0.000D+00 0.000D+00 0.100D+01
 Coeff:     -0.123D-01 0.549D-01 0.254D+00 0.704D+00
 Gap=     0.447 Goal=   None    Shift=    0.000
 RMSDP=5.94D-05 MaxDP=3.63D-03 DE=-2.71D-02 OVMax= 6.40D-03

 Cycle   5  Pass 0  IDiag  1:
 RMSU=  2.53D-05    CP:  1.01D+00  6.35D-01  9.29D-01  9.19D-01
 E= -825.248119966466     Delta-E=       -0.002010185029 Rises=F Damp=F
 DIIS: error= 5.28D-04 at cycle   5 NSaved=   5.
 NSaved= 5 IEnMin= 5 EnMin= -825.248119966466     IErMin= 5 ErrMin= 5.28D-04
 ErrMax= 5.28D-04 EMaxC= 1.00D-01 BMatC= 9.87D-05 BMatP= 2.25D-03
 IDIUse=3 WtCom= 9.95D-01 WtEn= 5.28D-03
 Coeff-Com:  0.320D-02-0.295D-01-0.103D+00-0.101D+00 0.123D+01
 Coeff-En:   0.000D+00 0.000D+00 0.000D+00 0.000D+00 0.100D+01
 Coeff:      0.318D-02-0.294D-01-0.102D+00-0.101D+00 0.123D+01
 Gap=     0.449 Goal=   None    Shift=    0.000
 RMSDP=3.38D-05 MaxDP=1.96D-03 DE=-2.01D-03 OVMax= 7.02D-03

 Cycle   6  Pass 0  IDiag  1:
 RMSU=  8.12D-06    CP:  1.01D+00  6.28D-01  9.63D-01  1.08D+00  1.43D+00
 E= -825.248448018650     Delta-E=       -0.000328052183 Rises=F Damp=F
 DIIS: error= 2.20D-04 at cycle   6 NSaved=   6.
 NSaved= 6 IEnMin= 6 EnMin= -825.248448018650     IErMin= 6 ErrMin= 2.20D-04
 ErrMax= 2.20D-04 EMaxC= 1.00D-01 BMatC= 1.58D-05 BMatP= 9.87D-05
 IDIUse=3 WtCom= 9.98D-01 WtEn= 2.20D-03
 Coeff-Com:  0.125D-02-0.640D-02-0.246D-01-0.894D-01 0.640D-02 0.111D+01
 Coeff-En:   0.000D+00 0.000D+00 0.000D+00 0.000D+00 0.000D+00 0.100D+01
 Coeff:      0.125D-02-0.638D-02-0.246D-01-0.892D-01 0.639D-02 0.111D+01
 Gap=     0.449 Goal=   None    Shift=    0.000
 RMSDP=1.39D-05 MaxDP=9.30D-04 DE=-3.28D-04 OVMax= 3.17D-03

 Cycle   7  Pass 0  IDiag  1:
 RMSU=  2.87D-06    CP:  1.01D+00  6.24D-01  9.77D-01  1.13D+00  1.64D+00
                    CP:  1.37D+00
 E= -825.248496924287     Delta-E=       -0.000048905638 Rises=F Damp=F
 DIIS: error= 7.37D-05 at cycle   7 NSaved=   7.
 NSaved= 7 IEnMin= 7 EnMin= -825.248496924287     IErMin= 7 ErrMin= 7.37D-05
 ErrMax= 7.37D-05 EMaxC= 1.00D-01 BMatC= 2.73D-06 BMatP= 1.58D-05
 IDIUse=1 WtCom= 1.00D+00 WtEn= 0.00D+00
 Coeff-Com: -0.267D-03 0.336D-02 0.133D-01-0.484D-02-0.172D+00 0.175D+00
 Coeff-Com:  0.986D+00
 Coeff:     -0.267D-03 0.336D-02 0.133D-01-0.484D-02-0.172D+00 0.175D+00
 Coeff:      0.986D+00
 Gap=     0.450 Goal=   None    Shift=    0.000
 RMSDP=4.62D-06 MaxDP=2.83D-04 DE=-4.89D-05 OVMax= 1.07D-03

 Initial convergence to 1.0D-05 achieved.  Increase integral accuracy.
 Cycle   8  Pass 1  IDiag  1:
 E= -825.248510387824     Delta-E=       -0.000013463537 Rises=F Damp=F
 DIIS: error= 4.46D-05 at cycle   1 NSaved=   1.
 NSaved= 1 IEnMin= 1 EnMin= -825.248510387824     IErMin= 1 ErrMin= 4.46D-05
 ErrMax= 4.46D-05 EMaxC= 1.00D-01 BMatC= 1.04D-06 BMatP= 1.04D-06
 IDIUse=1 WtCom= 1.00D+00 WtEn= 0.00D+00
 Coeff-Com:  0.100D+01
 Coeff:      0.100D+01
 Gap=     0.450 Goal=   None    Shift=    0.000
 RMSDP=4.62D-06 MaxDP=2.83D-04 DE=-1.35D-05 OVMax= 2.69D-04

 Cycle   9  Pass 1  IDiag  1:
 RMSU=  1.26D-05    CP:  1.00D+00
 E= -825.248511399060     Delta-E=       -0.000001011236 Rises=F Damp=F
 DIIS: error= 2.84D-05 at cycle   2 NSaved=   2.
 NSaved= 2 IEnMin= 2 EnMin= -825.248511399060     IErMin= 2 ErrMin= 2.84D-05
 ErrMax= 2.84D-05 EMaxC= 1.00D-01 BMatC= 1.41D-07 BMatP= 1.04D-06
 IDIUse=1 WtCom= 1.00D+00 WtEn= 0.00D+00
 Coeff-Com:  0.114D+00 0.886D+00
 Coeff:      0.114D+00 0.886D+00
 Gap=     0.450 Goal=   None    Shift=    0.000
 RMSDP=1.04D-06 MaxDP=4.78D-05 DE=-1.01D-06 OVMax= 1.44D-04

 Cycle  10  Pass 1  IDiag  1:
 RMSU=  4.48D-07    CP:  1.00D+00  1.05D+00
 E= -825.248511621376     Delta-E=       -0.000000222316 Rises=F Damp=F
 DIIS: error= 9.82D-06 at cycle   3 NSaved=   3.
 NSaved= 3 IEnMin= 3 EnMin= -825.248511621376     IErMin= 3 ErrMin= 9.82D-06
 ErrMax= 9.82D-06 EMaxC= 1.00D-01 BMatC= 6.28D-08 BMatP= 1.41D-07
 IDIUse=1 WtCom= 1.00D+00 WtEn= 0.00D+00
 Coeff-Com: -0.863D-01 0.310D+00 0.776D+00
 Coeff:     -0.863D-01 0.310D+00 0.776D+00
 Gap=     0.450 Goal=   None    Shift=    0.000
 RMSDP=5.27D-07 MaxDP=4.40D-05 DE=-2.22D-07 OVMax= 9.30D-05

 Cycle  11  Pass 1  IDiag  1:
 RMSU=  3.10D-07    CP:  1.00D+00  1.06D+00  1.24D+00
 E= -825.248511719712     Delta-E=       -0.000000098336 Rises=F Damp=F
 DIIS: error= 6.84D-06 at cycle   4 NSaved=   4.
 NSaved= 4 IEnMin= 4 EnMin= -825.248511719712     IErMin= 4 ErrMin= 6.84D-06
 ErrMax= 6.84D-06 EMaxC= 1.00D-01 BMatC= 8.58D-09 BMatP= 6.28D-08
 IDIUse=1 WtCom= 1.00D+00 WtEn= 0.00D+00
 Coeff-Com:  0.102D-01-0.343D+00-0.477D+00 0.181D+01
 Coeff:      0.102D-01-0.343D+00-0.477D+00 0.181D+01
 Gap=     0.450 Goal=   None    Shift=    0.000
 RMSDP=5.48D-07 MaxDP=4.71D-05 DE=-9.83D-08 OVMax= 1.27D-04

 Cycle  12  Pass 1  IDiag  1:
 RMSU=  1.12D-07    CP:  1.00D+00  1.06D+00  1.70D+00  1.99D+00
 E= -825.248511764253     Delta-E=       -0.000000044541 Rises=F Damp=F
 DIIS: error= 8.13D-07 at cycle   5 NSaved=   5.
 NSaved= 5 IEnMin= 5 EnMin= -825.248511764253     IErMin= 5 ErrMin= 8.13D-07
 ErrMax= 8.13D-07 EMaxC= 1.00D-01 BMatC= 6.32D-10 BMatP= 8.58D-09
 IDIUse=1 WtCom= 1.00D+00 WtEn= 0.00D+00
 Coeff-Com:  0.745D-02-0.133D+00-0.207D+00 0.591D+00 0.742D+00
 Coeff:      0.745D-02-0.133D+00-0.207D+00 0.591D+00 0.742D+00
 Gap=     0.450 Goal=   None    Shift=    0.000
 RMSDP=8.81D-08 MaxDP=8.62D-06 DE=-4.45D-08 OVMax= 1.24D-05

 Cycle  13  Pass 1  IDiag  1:
 RMSU=  2.36D-08    CP:  1.00D+00  1.06D+00  1.74D+00  2.14D+00  1.20D+00
 E= -825.248511765227     Delta-E=       -0.000000000975 Rises=F Damp=F
 DIIS: error= 3.16D-07 at cycle   6 NSaved=   6.
 NSaved= 6 IEnMin= 6 EnMin= -825.248511765227     IErMin= 6 ErrMin= 3.16D-07
 ErrMax= 3.16D-07 EMaxC= 1.00D-01 BMatC= 5.44D-11 BMatP= 6.32D-10
 IDIUse=1 WtCom= 1.00D+00 WtEn= 0.00D+00
 Coeff-Com: -0.974D-03 0.458D-01 0.626D-01-0.233D+00 0.678D-01 0.106D+01
 Coeff:     -0.974D-03 0.458D-01 0.626D-01-0.233D+00 0.678D-01 0.106D+01
 Gap=     0.450 Goal=   None    Shift=    0.000
 RMSDP=2.92D-08 MaxDP=2.54D-06 DE=-9.75D-10 OVMax= 3.67D-06

 Cycle  14  Pass 1  IDiag  1:
 RMSU=  8.34D-09    CP:  1.00D+00  1.06D+00  1.74D+00  2.18D+00  1.32D+00
                    CP:  1.23D+00
 E= -825.248511765319     Delta-E=       -0.000000000092 Rises=F Damp=F
 DIIS: error= 1.43D-07 at cycle   7 NSaved=   7.
 NSaved= 7 IEnMin= 7 EnMin= -825.248511765319     IErMin= 7 ErrMin= 1.43D-07
 ErrMax= 1.43D-07 EMaxC= 1.00D-01 BMatC= 5.78D-12 BMatP= 5.44D-11
 IDIUse=1 WtCom= 1.00D+00 WtEn= 0.00D+00
 Coeff-Com: -0.955D-03 0.220D-01 0.325D-01-0.108D+00-0.614D-01 0.194D+00
 Coeff-Com:  0.921D+00
 Coeff:     -0.955D-03 0.220D-01 0.325D-01-0.108D+00-0.614D-01 0.194D+00
 Coeff:      0.921D+00
 Gap=     0.450 Goal=   None    Shift=    0.000
 RMSDP=8.86D-09 MaxDP=8.99D-07 DE=-9.21D-11 OVMax= 1.60D-06

 SCF Done:  E(RHF) =  -825.248511765     A.U. after   14 cycles
             Convg  =    0.8863D-08             -V/T =  2.0016
 KE= 8.239102219132D+02 PE=-3.985838020984D+03 EE= 1.312692431416D+03
 Leave Link  502 at Mon Sep  9 17:55:59 2019, MaxMem= 4294967296 cpu:    5579.7
 (Enter /opt/g09gh/gaussian/g09/l801.exe)
 ExpMin= 1.03D-01 ExpMax= 1.53D+04 ExpMxC= 5.22D+02 IAcc=1 IRadAn=         1 AccDes= 0.00D+00
 HarFok:  IExCor=  205 AccDes= 0.00D+00 IRadAn=         1 IDoV=-2
 ScaDFX=  1.000000  1.000000  1.000000  1.000000
 Largest valence mixing into a core orbital is  2.17D-04
 Largest core mixing into a valence orbital is  3.75D-05
 Range of M.O.s used for correlation:    17   592
 NBasis=   592 NAE=    58 NBE=    58 NFC=    16 NFV=     0
 NROrb=    576 NOA=    42 NOB=    42 NVA=   534 NVB=   534

 **** Warning!!: The largest alpha MO coefficient is  0.13755477D+02

 Leave Link  801 at Mon Sep  9 17:55:59 2019, MaxMem= 4294967296 cpu:       1.5
 (Enter /opt/g09gh/gaussian/g09/l906.exe)
 Frozen-core derivative calculation, NFC=  16 NFV=   0.
 FulOut=F Deriv=T AODrv=T NAtomX=    24
   MMem=          38  MDisk=          42 MDiskD=          28
  W3Min=    23348480 MinDsk=    30839380 NBas6D=         680
 NBas2D=      233052    NTT=      231540    LW2=     3500000
    MDV=  4291339044 MDiskM=       31539 NBas2p=      158053
 Fully direct method using O(ONN) memory.
 IMap=   1   2   3   4   5   6   7   8   9  10  11  12  13  14  15  16  17  18  19  20
 IMap=  21  22  23  24  25  26  27  28  29  30  31  32  33  34  35  36  37  38  39  40
 IMap=  41  42  43  44  45  46  47  48  49  50  51  52  53  54  55  56  57  58
 JobTyp=1 Pass  1:  I=  17 to  19 NPSUse=  8 ParTrn=T ParDer=T DoDerP=T.
 JobTyp=1 Pass  2:  I=  20 to  22 NPSUse=  8 ParTrn=T ParDer=T DoDerP=T.
 JobTyp=1 Pass  3:  I=  23 to  25 NPSUse=  8 ParTrn=T ParDer=T DoDerP=T.
 JobTyp=1 Pass  4:  I=  26 to  28 NPSUse=  8 ParTrn=T ParDer=T DoDerP=T.
 JobTyp=1 Pass  5:  I=  29 to  31 NPSUse=  8 ParTrn=T ParDer=T DoDerP=T.
 JobTyp=1 Pass  6:  I=  32 to  34 NPSUse=  8 ParTrn=T ParDer=T DoDerP=T.
 JobTyp=1 Pass  7:  I=  35 to  37 NPSUse=  8 ParTrn=T ParDer=T DoDerP=T.
 JobTyp=1 Pass  8:  I=  38 to  40 NPSUse=  8 ParTrn=T ParDer=T DoDerP=T.
 JobTyp=1 Pass  9:  I=  41 to  43 NPSUse=  8 ParTrn=T ParDer=T DoDerP=T.
 JobTyp=1 Pass 10:  I=  44 to  46 NPSUse=  8 ParTrn=T ParDer=T DoDerP=T.
 JobTyp=1 Pass 11:  I=  47 to  49 NPSUse=  8 ParTrn=T ParDer=T DoDerP=T.
 JobTyp=1 Pass 12:  I=  50 to  52 NPSUse=  8 ParTrn=T ParDer=T DoDerP=T.
 JobTyp=1 Pass 13:  I=  53 to  55 NPSUse=  8 ParTrn=T ParDer=T DoDerP=T.
 JobTyp=1 Pass 14:  I=  56 to  58 NPSUse=  8 ParTrn=T ParDer=T DoDerP=T.
 Spin components of T(2) and E(2):
     alpha-alpha T2 =       0.1161967178D+00 E2=     -0.3879872180D+00
     alpha-beta  T2 =       0.6072421886D+00 E2=     -0.2176607041D+01
     beta-beta   T2 =       0.1161967178D+00 E2=     -0.3879872180D+00
 The integrals were generated  14 times.
 ANorm=    0.1356331679D+01
 E2 =    -0.2952581477D+01 EUMP2 =    -0.82820109324195D+03
 Leave Link  906 at Mon Sep  9 23:06:15 2019, MaxMem= 4294967296 cpu:  148850.7
 (Enter /opt/g09gh/gaussian/g09/l1002.exe)
 Minotr:  Closed shell wavefunction.
          Computing MP2/KS-MP2 derivatives.
          Using Z-Vector for PSCF gradient.
          Skipping F1 and S1 gradient terms here.
          IDoAtm=111111111111111111111111
          Frozen-core window.
          Direct CPHF calculation.
          Differentiating once with respect to electric field.
                with respect to dipole field.
          Differentiating once with respect to nuclear coordinates.
          Requested convergence is 1.0D-10 RMS, and 1.0D-09 maximum.
          NewPWx=F KeepS1=T KeepF1=T KeepIn=T MapXYZ=F SortEE=F KeepMc=T.
          MDV=    4294967052 using IRadAn=       0.
          Solving linear equations separately, MaxMat=       0.
          There are     1 degrees of freedom in the 1st order CPHF.  IDoFFX=0.
 Symmetry not used in FoFDir.
 MinBra= 0 MaxBra= 3 Meth= 1.
 IRaf=       0 NMat=   1 IRICut=       1 DoRegI=T DoRafI=F ISym2E= 0 JSym2E=0.
 LinEq1:  Iter=  0 NonCon=     1 RMS=2.89D-03 Max=1.31D-01
 AX will form     1 AO Fock derivatives at one time.
 LinEq1:  Iter=  1 NonCon=     1 RMS=8.97D-04 Max=3.74D-02
 LinEq1:  Iter=  2 NonCon=     1 RMS=3.55D-04 Max=9.53D-03
 LinEq1:  Iter=  3 NonCon=     1 RMS=1.56D-04 Max=5.79D-03
 LinEq1:  Iter=  4 NonCon=     1 RMS=3.71D-05 Max=9.19D-04
 LinEq1:  Iter=  5 NonCon=     1 RMS=9.79D-06 Max=4.39D-04
 LinEq1:  Iter=  6 NonCon=     1 RMS=3.46D-06 Max=1.89D-04
 LinEq1:  Iter=  7 NonCon=     1 RMS=1.35D-06 Max=9.26D-05
 LinEq1:  Iter=  8 NonCon=     1 RMS=3.34D-07 Max=1.25D-05
 LinEq1:  Iter=  9 NonCon=     1 RMS=1.32D-07 Max=5.86D-06
 LinEq1:  Iter= 10 NonCon=     1 RMS=4.99D-08 Max=1.24D-06
 LinEq1:  Iter= 11 NonCon=     1 RMS=1.63D-08 Max=6.13D-07
 LinEq1:  Iter= 12 NonCon=     1 RMS=7.20D-09 Max=2.84D-07
 LinEq1:  Iter= 13 NonCon=     1 RMS=2.23D-09 Max=8.72D-08
 LinEq1:  Iter= 14 NonCon=     1 RMS=1.05D-09 Max=4.49D-08
 LinEq1:  Iter= 15 NonCon=     1 RMS=2.93D-10 Max=6.89D-09
 LinEq1:  Iter= 16 NonCon=     1 RMS=8.88D-11 Max=2.79D-09
 LinEq1:  Iter= 17 NonCon=     1 RMS=3.17D-11 Max=1.03D-09
 LinEq1:  Iter= 18 NonCon=     0 RMS=7.10D-12 Max=2.86D-10
 Linear equations converged to 1.000D-10 1.000D-09 after    18 iterations.
 End of Minotr Frequency-dependent properties file   721 does not exist.
 End of Minotr Frequency-dependent properties file   722 does not exist.
 Leave Link 1002 at Mon Sep  9 23:18:38 2019, MaxMem= 4294967296 cpu:    5724.5
 (Enter /opt/g09gh/gaussian/g09/l601.exe)
 Copying SCF densities to generalized density rwf, IOpCl= 0 IROHF=0.

 **********************************************************************

            Population analysis using the SCF density.

 **********************************************************************

 Alpha  occ. eigenvalues --  -20.54217 -20.54158 -20.52762 -20.52644 -15.63911
 Alpha  occ. eigenvalues --  -15.62973 -15.62560 -15.60160 -11.41448 -11.39967
 Alpha  occ. eigenvalues --  -11.38138 -11.36855 -11.33245 -11.32961 -11.24294
 Alpha  occ. eigenvalues --  -11.24139  -1.43313  -1.41777  -1.39889  -1.38384
 Alpha  occ. eigenvalues --   -1.30914  -1.29754  -1.24390  -1.22683  -1.08125
 Alpha  occ. eigenvalues --   -1.07510  -0.92889  -0.91877  -0.89964  -0.88466
 Alpha  occ. eigenvalues --   -0.80105  -0.79182  -0.76103  -0.75083  -0.71044
 Alpha  occ. eigenvalues --   -0.70451  -0.67815  -0.66632  -0.66584  -0.65186
 Alpha  occ. eigenvalues --   -0.64649  -0.63678  -0.61508  -0.60429  -0.59005
 Alpha  occ. eigenvalues --   -0.58159  -0.57206  -0.55809  -0.51996  -0.51100
 Alpha  occ. eigenvalues --   -0.48169  -0.46696  -0.45124  -0.43802  -0.43561
 Alpha  occ. eigenvalues --   -0.41830  -0.36207  -0.35667
 Alpha virt. eigenvalues --    0.09295   0.10049   0.12096   0.12152   0.16535
 Alpha virt. eigenvalues --    0.16891   0.16896   0.17539   0.17971   0.19378
 Alpha virt. eigenvalues --    0.24874   0.25931   0.26548   0.29176   0.29353
 Alpha virt. eigenvalues --    0.30039   0.30343   0.31400   0.33126   0.34899
 Alpha virt. eigenvalues --    0.35649   0.37794   0.38711   0.39476   0.39862
 Alpha virt. eigenvalues --    0.40471   0.42137   0.42261   0.42630   0.44954
 Alpha virt. eigenvalues --    0.45051   0.45361   0.45515   0.47812   0.48046
 Alpha virt. eigenvalues --    0.49316   0.49555   0.50421   0.50967   0.52320
 Alpha virt. eigenvalues --    0.52705   0.54144   0.54748   0.55040   0.55289
 Alpha virt. eigenvalues --    0.56494   0.57814   0.58205   0.59401   0.60204
 Alpha virt. eigenvalues --    0.61219   0.64091   0.64287   0.64683   0.65129
 Alpha virt. eigenvalues --    0.66196   0.66660   0.67399   0.68103   0.68168
 Alpha virt. eigenvalues --    0.68816   0.69919   0.71233   0.74100   0.74564
 Alpha virt. eigenvalues --    0.75523   0.76326   0.76984   0.77120   0.77834
 Alpha virt. eigenvalues --    0.79814   0.80055   0.80913   0.80972   0.81275
 Alpha virt. eigenvalues --    0.83012   0.86013   0.86135   0.87262   0.88389
 Alpha virt. eigenvalues --    0.88426   0.89090   0.90059   0.90397   0.91423
 Alpha virt. eigenvalues --    0.91987   0.92465   0.92824   0.93910   0.94602
 Alpha virt. eigenvalues --    0.94935   0.95553   0.96398   0.97183   0.97812
 Alpha virt. eigenvalues --    0.98876   1.02222   1.02696   1.03218   1.04457
 Alpha virt. eigenvalues --    1.06210   1.06813   1.07920   1.08270   1.09242
 Alpha virt. eigenvalues --    1.09527   1.10631   1.11449   1.13846   1.17191
 Alpha virt. eigenvalues --    1.17409   1.18247   1.18686   1.20581   1.21408
 Alpha virt. eigenvalues --    1.22990   1.23202   1.26766   1.27157   1.27475
 Alpha virt. eigenvalues --    1.28255   1.28612   1.31803   1.31965   1.33278
 Alpha virt. eigenvalues --    1.34317   1.35056   1.35458   1.37812   1.39488
 Alpha virt. eigenvalues --    1.40791   1.42651   1.43492   1.43584   1.44204
 Alpha virt. eigenvalues --    1.44931   1.46325   1.48051   1.48498   1.51019
 Alpha virt. eigenvalues --    1.51462   1.52755   1.53368   1.53464   1.54581
 Alpha virt. eigenvalues --    1.58015   1.58270   1.60071   1.61691   1.62959
 Alpha virt. eigenvalues --    1.66019   1.66178   1.68837   1.69276   1.70220
 Alpha virt. eigenvalues --    1.70669   1.70909   1.72005   1.72036   1.75459
 Alpha virt. eigenvalues --    1.76666   1.77299   1.80102   1.82685   1.83649
 Alpha virt. eigenvalues --    1.85001   1.87156   1.89914   1.90176   1.95635
 Alpha virt. eigenvalues --    1.97315   1.99924   2.00525   2.00835   2.02136
 Alpha virt. eigenvalues --    2.02260   2.03969   2.04937   2.05525   2.07901
 Alpha virt. eigenvalues --    2.09023   2.12764   2.13585   2.24066   2.24979
 Alpha virt. eigenvalues --    2.25081   2.27149   2.27985   2.29010   2.30373
 Alpha virt. eigenvalues --    2.30485   2.31674   2.32491   2.32499   2.34709
 Alpha virt. eigenvalues --    2.36283   2.36944   2.40932   2.41476   2.42142
 Alpha virt. eigenvalues --    2.45261   2.46973   2.47011   2.48638   2.52316
 Alpha virt. eigenvalues --    2.52399   2.54936   2.55971   2.59921   2.61224
 Alpha virt. eigenvalues --    2.61407   2.61446   2.65503   2.68095   2.70172
 Alpha virt. eigenvalues --    2.72066   2.72896   2.73557   2.74364   2.76297
 Alpha virt. eigenvalues --    2.79908   2.82011   2.82790   2.83678   2.87755
 Alpha virt. eigenvalues --    2.88163   2.92952   2.94171   2.94972   2.95104
 Alpha virt. eigenvalues --    2.96752   2.98391   2.99936   3.00841   3.01284
 Alpha virt. eigenvalues --    3.02604   3.03643   3.04604   3.04970   3.06523
 Alpha virt. eigenvalues --    3.06916   3.08034   3.09862   3.11394   3.13739
 Alpha virt. eigenvalues --    3.14603   3.14732   3.15353   3.18574   3.19268
 Alpha virt. eigenvalues --    3.19357   3.19795   3.20022   3.20862   3.21646
 Alpha virt. eigenvalues --    3.23746   3.24022   3.25120   3.25206   3.26509
 Alpha virt. eigenvalues --    3.28651   3.29536   3.30386   3.31631   3.33386
 Alpha virt. eigenvalues --    3.33714   3.35865   3.35907   3.36515   3.36775
 Alpha virt. eigenvalues --    3.36987   3.37259   3.38398   3.39421   3.40744
 Alpha virt. eigenvalues --    3.41640   3.42361   3.43263   3.45244   3.45488
 Alpha virt. eigenvalues --    3.46490   3.47141   3.47185   3.49213   3.50802
 Alpha virt. eigenvalues --    3.51380   3.52659   3.52909   3.54286   3.55030
 Alpha virt. eigenvalues --    3.55828   3.56563   3.59132   3.59815   3.59962
 Alpha virt. eigenvalues --    3.60290   3.61524   3.63236   3.64077   3.67007
 Alpha virt. eigenvalues --    3.68769   3.68835   3.70217   3.70581   3.71131
 Alpha virt. eigenvalues --    3.73610   3.73862   3.74057   3.76078   3.77613
 Alpha virt. eigenvalues --    3.79022   3.79348   3.81865   3.82545   3.83819
 Alpha virt. eigenvalues --    3.84965   3.85112   3.86796   3.89425   3.89905
 Alpha virt. eigenvalues --    3.90112   3.91231   3.91723   3.97461   3.99100
 Alpha virt. eigenvalues --    4.00147   4.00820   4.02673   4.03349   4.04081
 Alpha virt. eigenvalues --    4.04687   4.06360   4.09889   4.10226   4.10966
 Alpha virt. eigenvalues --    4.11911   4.15214   4.15675   4.16786   4.17282
 Alpha virt. eigenvalues --    4.18777   4.18849   4.19850   4.20898   4.25593
 Alpha virt. eigenvalues --    4.27005   4.28124   4.28766   4.29882   4.30503
 Alpha virt. eigenvalues --    4.30568   4.31113   4.32532   4.34424   4.34597
 Alpha virt. eigenvalues --    4.36600   4.38875   4.41246   4.41806   4.41922
 Alpha virt. eigenvalues --    4.42675   4.46279   4.47204   4.48765   4.53012
 Alpha virt. eigenvalues --    4.54563   4.55254   4.56091   4.57449   4.57662
 Alpha virt. eigenvalues --    4.58590   4.59187   4.59914   4.60367   4.62513
 Alpha virt. eigenvalues --    4.62930   4.64698   4.65229   4.67044   4.68182
 Alpha virt. eigenvalues --    4.73114   4.75354   4.76934   4.77013   4.77173
 Alpha virt. eigenvalues --    4.78478   4.85205   4.88350   4.89172   4.90610
 Alpha virt. eigenvalues --    4.93846   4.95145   4.96360   4.97830   4.98157
 Alpha virt. eigenvalues --    4.98216   5.04410   5.05993   5.10487   5.11352
 Alpha virt. eigenvalues --    5.12075   5.12826   5.13177   5.14046   5.15858
 Alpha virt. eigenvalues --    5.16481   5.16837   5.19295   5.27431   5.28700
 Alpha virt. eigenvalues --    5.31057   5.33700   5.34103   5.34188   5.34443
 Alpha virt. eigenvalues --    5.34592   5.35361   5.38403   5.39240   5.39871
 Alpha virt. eigenvalues --    5.40907   5.42609   5.44362   5.46570   5.47217
 Alpha virt. eigenvalues --    5.48374   5.49147   5.50696   5.52655   5.55128
 Alpha virt. eigenvalues --    5.55499   5.56244   5.59060   5.60105   5.61910
 Alpha virt. eigenvalues --    5.63666   5.66466   5.66971   5.67777   5.68317
 Alpha virt. eigenvalues --    5.68905   5.70454   5.77171   5.79142   5.79596
 Alpha virt. eigenvalues --    5.80266   5.80765   5.81516   5.83793   5.85770
 Alpha virt. eigenvalues --    5.93419   5.93495   5.95168   5.96228   6.02846
 Alpha virt. eigenvalues --    6.03346   6.04244   6.04409   6.06476   6.06758
 Alpha virt. eigenvalues --    6.08457   6.09973   6.16122   6.16760   6.18364
 Alpha virt. eigenvalues --    6.19949   6.21518   6.22572   6.25726   6.26246
 Alpha virt. eigenvalues --    6.35418   6.38418   6.40713   6.41858   6.57058
 Alpha virt. eigenvalues --    6.58650   6.61278   6.61616   6.62314   6.63470
 Alpha virt. eigenvalues --    6.64732   6.65290   6.70349   6.71575   6.76027
 Alpha virt. eigenvalues --    6.77072   6.81416   6.82884   6.89846   6.90599
 Alpha virt. eigenvalues --    6.93653   6.93815   6.95902   6.98138   7.00485
 Alpha virt. eigenvalues --    7.03652   7.03901   7.05466   7.09497   7.14770
 Alpha virt. eigenvalues --    7.25006   7.28105   7.35367   7.35412   7.36695
 Alpha virt. eigenvalues --    7.36845   7.36902   7.40986   7.56472   7.57022
 Alpha virt. eigenvalues --    7.58827   7.59905   7.62446   7.64021   7.67201
 Alpha virt. eigenvalues --    7.75468   7.93657   7.95250   9.50495   9.64109
 Alpha virt. eigenvalues --   10.93418  10.97404  11.89489  12.20496  13.38755
 Alpha virt. eigenvalues --   13.47767  13.55678  13.62246  13.83070  13.89617
 Alpha virt. eigenvalues --   14.11383  14.16512  15.18946  15.26552
          Condensed to atoms (all electrons):
              1          2          3          4          5          6
     1  O    7.809005   0.812896  -0.109694  -0.000299   0.000203  -0.004181
     2  C    0.812896   4.169706   0.401002  -0.057077   0.000858  -0.042400
     3  N   -0.109694   0.401002   6.277680   0.426683  -0.095347   0.002949
     4  C   -0.000299  -0.057077   0.426683   4.837001   0.512146  -0.076609
     5  C    0.000203   0.000858  -0.095347   0.512146   5.249734   0.409329
     6  C   -0.004181  -0.042400   0.002949  -0.076609   0.409329   4.273405
     7  N   -0.106383   0.424088  -0.094370   0.014815  -0.101726   0.409383
     8  O   -0.000049  -0.003113   0.000274   0.004470  -0.061934   0.716562
     9  H    0.000020   0.000888   0.001346  -0.033580   0.396073  -0.021448
    10  H    0.011003  -0.019453   0.369294  -0.027547   0.002391  -0.000153
    11  H    0.008248  -0.025176   0.003896  -0.000925   0.003289  -0.017548
    12  H   -0.000262   0.002220  -0.028364   0.419686  -0.031471   0.004239
    13  O    0.000174  -0.001541  -0.000021  -0.000031   0.000190   0.000516
    14  C   -0.000019   0.000316   0.000000   0.000007  -0.000021   0.000582
    15  N    0.000000  -0.000008   0.000000   0.000000   0.000001   0.000022
    16  C    0.000000   0.000000   0.000000   0.000000   0.000000   0.000001
    17  N    0.000000   0.000000   0.000000   0.000000   0.000000  -0.000003
    18  C    0.000000  -0.000013   0.000000  -0.000001   0.000014   0.000175
    19  C   -0.000015  -0.000071   0.000000  -0.000010   0.000004   0.000358
    20  O    0.000000   0.000000   0.000000   0.000000   0.000000   0.000000
    21  H   -0.000004  -0.000032   0.000003  -0.000046   0.000484  -0.004364
    22  H    0.000000   0.000000   0.000000   0.000000   0.000000   0.000000
    23  H   -0.000001   0.000006   0.000000   0.000000   0.000000  -0.000004
    24  H    0.000000   0.000000   0.000000   0.000000   0.000000   0.000001
              7          8          9         10         11         12
     1  O   -0.106383  -0.000049   0.000020   0.011003   0.008248  -0.000262
     2  C    0.424088  -0.003113   0.000888  -0.019453  -0.025176   0.002220
     3  N   -0.094370   0.000274   0.001346   0.369294   0.003896  -0.028364
     4  C    0.014815   0.004470  -0.033580  -0.027547  -0.000925   0.419686
     5  C   -0.101726  -0.061934   0.396073   0.002391   0.003289  -0.031471
     6  C    0.409383   0.716562  -0.021448  -0.000153  -0.017548   0.004239
     7  N    6.407697  -0.119939   0.004410   0.006645   0.345546  -0.000678
     8  O   -0.119939   7.914805   0.003805   0.000019   0.006421  -0.000123
     9  H    0.004410   0.003805   0.461228  -0.000225  -0.000229  -0.003011
    10  H    0.006645   0.000019  -0.000225   0.466682  -0.000309  -0.005902
    11  H    0.345546   0.006421  -0.000229  -0.000309   0.401160   0.000094
    12  H   -0.000678  -0.000123  -0.003011  -0.005902   0.000094   0.467480
    13  O   -0.014745  -0.000186   0.000004   0.000001   0.027971   0.000000
    14  C    0.000664  -0.003184   0.000003   0.000000  -0.006977   0.000000
    15  N   -0.000048   0.000002   0.000000   0.000000   0.000447   0.000000
    16  C    0.000000  -0.000002   0.000000   0.000000  -0.000029   0.000000
    17  N    0.000000  -0.000003   0.000000   0.000000  -0.000006   0.000000
    18  C   -0.000117   0.001008   0.000000   0.000000   0.000285   0.000000
    19  C   -0.001245  -0.009220  -0.000009   0.000000  -0.000749   0.000000
    20  O    0.000000   0.000000   0.000000   0.000000   0.000000   0.000000
    21  H    0.000013   0.020719   0.000012   0.000000   0.001642   0.000001
    22  H    0.000000   0.000000   0.000000   0.000000   0.000000   0.000000
    23  H    0.000002   0.000001   0.000000   0.000000  -0.000053   0.000000
    24  H   -0.000002  -0.000008   0.000000   0.000000   0.000000   0.000000
             13         14         15         16         17         18
     1  O    0.000174  -0.000019   0.000000   0.000000   0.000000   0.000000
     2  C   -0.001541   0.000316  -0.000008   0.000000   0.000000  -0.000013
     3  N   -0.000021   0.000000   0.000000   0.000000   0.000000   0.000000
     4  C   -0.000031   0.000007   0.000000   0.000000   0.000000  -0.000001
     5  C    0.000190  -0.000021   0.000001   0.000000   0.000000   0.000014
     6  C    0.000516   0.000582   0.000022   0.000001  -0.000003   0.000175
     7  N   -0.014745   0.000664  -0.000048   0.000000   0.000000  -0.000117
     8  O   -0.000186  -0.003184   0.000002  -0.000002  -0.000003   0.001008
     9  H    0.000004   0.000003   0.000000   0.000000   0.000000   0.000000
    10  H    0.000001   0.000000   0.000000   0.000000   0.000000   0.000000
    11  H    0.027971  -0.006977   0.000447  -0.000029  -0.000006   0.000285
    12  H    0.000000   0.000000   0.000000   0.000000   0.000000   0.000000
    13  O    7.944437   0.681690  -0.101752  -0.001539  -0.000024   0.006944
    14  C    0.681690   4.287035   0.474633  -0.046563  -0.004346  -0.031054
    15  N   -0.101752   0.474633   6.314676   0.415043  -0.096343   0.003131
    16  C   -0.001539  -0.046563   0.415043   4.181244   0.396053  -0.065071
    17  N   -0.000024  -0.004346  -0.096343   0.396053   6.279297   0.426814
    18  C    0.006944  -0.031054   0.003131  -0.065071   0.426814   4.850745
    19  C   -0.079464   0.305716  -0.106570   0.005906  -0.094635   0.481806
    20  O   -0.000053  -0.003275  -0.106316   0.827378  -0.109969  -0.001220
    21  H   -0.004316  -0.022892  -0.000148   0.000737   0.002402  -0.042208
    22  H    0.000024   0.000064   0.006314  -0.019154   0.369826  -0.027691
    23  H    0.006950  -0.024307   0.348983  -0.021127   0.005403  -0.001738
    24  H   -0.000086   0.003428  -0.000565   0.001541  -0.030409   0.421529
             19         20         21         22         23         24
     1  O   -0.000015   0.000000  -0.000004   0.000000  -0.000001   0.000000
     2  C   -0.000071   0.000000  -0.000032   0.000000   0.000006   0.000000
     3  N    0.000000   0.000000   0.000003   0.000000   0.000000   0.000000
     4  C   -0.000010   0.000000  -0.000046   0.000000   0.000000   0.000000
     5  C    0.000004   0.000000   0.000484   0.000000   0.000000   0.000000
     6  C    0.000358   0.000000  -0.004364   0.000000  -0.000004   0.000001
     7  N   -0.001245   0.000000   0.000013   0.000000   0.000002  -0.000002
     8  O   -0.009220   0.000000   0.020719   0.000000   0.000001  -0.000008
     9  H   -0.000009   0.000000   0.000012   0.000000   0.000000   0.000000
    10  H    0.000000   0.000000   0.000000   0.000000   0.000000   0.000000
    11  H   -0.000749   0.000000   0.001642   0.000000  -0.000053   0.000000
    12  H    0.000000   0.000000   0.000001   0.000000   0.000000   0.000000
    13  O   -0.079464  -0.000053  -0.004316   0.000024   0.006950  -0.000086
    14  C    0.305716  -0.003275  -0.022892   0.000064  -0.024307   0.003428
    15  N   -0.106570  -0.106316  -0.000148   0.006314   0.348983  -0.000565
    16  C    0.005906   0.827378   0.000737  -0.019154  -0.021127   0.001541
    17  N   -0.094635  -0.109969   0.002402   0.369826   0.005403  -0.030409
    18  C    0.481806  -0.001220  -0.042208  -0.027691  -0.001738   0.421529
    19  C    5.431238  -0.000036   0.406487   0.002099   0.009577  -0.029807
    20  O   -0.000036   7.794150   0.000013   0.009931   0.006878  -0.000268
    21  H    0.406487   0.000013   0.398378  -0.000184  -0.000022  -0.002197
    22  H    0.002099   0.009931  -0.000184   0.464589  -0.000407  -0.005529
    23  H    0.009577   0.006878  -0.000022  -0.000407   0.467159   0.000103
    24  H   -0.029807  -0.000268  -0.002197  -0.005529   0.000103   0.462217
 Mulliken atomic charges:
              1
     1  O   -0.420641
     2  C    0.336905
     3  N   -0.155331
     4  C   -0.018683
     5  C   -0.284218
     6  C    0.349186
     7  N   -0.174011
     8  O   -0.470325
     9  H    0.190713
    10  H    0.197554
    11  H    0.253002
    12  H    0.176092
    13  O   -0.465145
    14  C    0.388500
    15  N   -0.151501
    16  C    0.325582
    17  N   -0.144058
    18  C   -0.023337
    19  C   -0.321361
    20  O   -0.417213
    21  H    0.245524
    22  H    0.200119
    23  H    0.202596
    24  H    0.180052
 Sum of Mulliken atomic charges =   0.00000
 Mulliken charges with hydrogens summed into heavy atoms:
              1
     1  O   -0.420641
     2  C    0.336905
     3  N    0.042222
     4  C    0.157409
     5  C   -0.093505
     6  C    0.349186
     7  N    0.078991
     8  O   -0.470325
    13  O   -0.465145
    14  C    0.388500
    15  N    0.051095
    16  C    0.325582
    17  N    0.056060
    18  C    0.156715
    19  C   -0.075838
    20  O   -0.417213
 Sum of Mulliken charges with hydrogens summed into heavy atoms =   0.00000
          Condensed to fragments (all electrons):
     1      -0.019758
     2       0.019758
 Electronic spatial extent (au):  <R**2>=           5380.9078
 Charge=              0.0000 electrons
 Dipole moment (field-independent basis, Debye):
    X=             -0.4870    Y=             -5.5520    Z=              0.0003  Tot=              5.5734
 Quadrupole moment (field-independent basis, Debye-Ang):
   XX=            -62.3665   YY=            -96.7754   ZZ=            -92.6517
   XY=            -13.4365   XZ=              0.0000   YZ=             -0.0018
 Traceless Quadrupole moment (field-independent basis, Debye-Ang):
   XX=             21.5647   YY=            -12.8442   ZZ=             -8.7205
   XY=            -13.4365   XZ=              0.0000   YZ=             -0.0018
 Octapole moment (field-independent basis, Debye-Ang**2):
  XXX=             -8.7055  YYY=            -90.6717  ZZZ=              0.0057  XYY=            131.1609
  XXY=           -136.2655  XXZ=              0.0101  XZZ=             -0.4688  YZZ=             12.5561
  YYZ=              0.0044  XYZ=             -0.0033
 Hexadecapole moment (field-independent basis, Debye-Ang**3):
 XXXX=          -3158.8509 YYYY=          -2857.0502 ZZZZ=            -88.0906 XXXY=            886.8375
 XXXZ=              0.0317 YYYX=           1335.7481 YYYZ=             -0.0633 ZZZX=              0.0120
 ZZZY=             -0.0216 XXYY=          -1204.6284 XXZZ=           -730.3054 YYZZ=           -488.3583
 XXYZ=             -0.0367 YYXZ=              0.0340 ZZXY=            408.2924
 N-N= 1.023986855889D+03 E-N=-3.985838018454D+03  KE= 8.239102219132D+02
 No NMR shielding tensors so no spin-rotation constants.
 Leave Link  601 at Mon Sep  9 23:18:39 2019, MaxMem= 4294967296 cpu:       4.5
 (Enter /opt/g09gh/gaussian/g09/l701.exe)
 Compute integral first derivatives.
 ... and contract with generalized density number  2.
 Leave Link  701 at Mon Sep  9 23:18:39 2019, MaxMem= 4294967296 cpu:       4.8
 (Enter /opt/g09gh/gaussian/g09/l702.exe)
 L702 exits ... SP integral derivatives will be done elsewhere.
 Leave Link  702 at Mon Sep  9 23:18:40 2019, MaxMem= 4294967296 cpu:       0.5
 (Enter /opt/g09gh/gaussian/g09/l703.exe)
 Compute integral first derivatives, UseDBF=F ICtDFT=           0.
 Integral derivatives from FoFDir, PRISM(SPDF).
 Calling FoFJK, ICntrl=      2127 FMM=F ISym2X=0 I1Cent= 0 IOpClX= 0 NMat=1 NMatS=1 NMatT=0.
 FoFCou: FMM=F IPFlag=           0 FMFlag=      100000 FMFlg1=         800
         NFxFlg=           0 DoJE=F BraDBF=F KetDBF=F FulRan=T
         Omega=  0.000000  0.000000  1.000000  0.000000  0.000000 ICntrl=    2127 IOpCl=  0
         NMat0=    1 NMatS0=    1 NMatT0=    0 NMatD0=    1 NMtDS0=    0 NMtDT0=    0
         I1Cent=           0 NGrid=           0.
 Symmetry not used in FoFCou.
 Leave Link  703 at Mon Sep  9 23:21:15 2019, MaxMem= 4294967296 cpu:    1239.5
 (Enter /opt/g09gh/gaussian/g09/l716.exe)
 Dipole        =-2.21103948D-01-1.74683483D+00 1.26767414D-04
 Cartesian Forces:  Max     0.001611412 RMS     0.000395766
 Leave Link  716 at Mon Sep  9 23:21:15 2019, MaxMem= 4294967296 cpu:       1.4
 (Enter /opt/g09gh/gaussian/g09/l122.exe)
 Restoring MOs from calculation   2 to rwf and chk.
 Counterpoise: doing DCBS calculation for fragment   1 NewBq=T
 Leave Link  122 at Mon Sep  9 23:21:15 2019, MaxMem= 4294967296 cpu:       1.0
 (Enter /opt/g09gh/gaussian/g09/l301.exe)
 Basis read from rwf:  (5D, 7F)
 No pseudopotential information found on rwf file.
 Integral buffers will be    131072 words long.
 Raffenetti 1 integral format.
 Two-electron integral symmetry is turned off.
   592 basis functions,   968 primitive gaussians,   680 cartesian basis functions
    29 alpha electrons       29 beta electrons
       nuclear repulsion energy       357.0681910590 Hartrees.
 IExCor=    0 DFT=F Ex=HF Corr=None ExCW=0 ScaHFX=  1.000000
 ScaDFX=  1.000000  1.000000  1.000000  1.000000 ScalE2=  1.000000  1.000000
 IRadAn=      0 IRanWt=     -1 IRanGd=            0 ICorTp=0
 NAtoms=   24 NActive=   24 NUniq=   24 SFac= 7.50D-01 NAtFMM=   80 NAOKFM=F Big=F
 No density basis found on file   718.
 Leave Link  301 at Mon Sep  9 23:21:15 2019, MaxMem= 4294967296 cpu:       0.7
 (Enter /opt/g09gh/gaussian/g09/l302.exe)
 NPDir=0 NMtPBC=     1 NCelOv=     1 NCel=       1 NClECP=     1 NCelD=      1
         NCelK=      1 NCelE2=     1 NClLst=     1 CellRange=     0.0.
 One-electron integrals computed using PRISM.
 NBasis=   592 RedAO= T  NBF=   592
 NBsUse=   592 1.00D-06 NBFU=   592
 Leave Link  302 at Mon Sep  9 23:21:16 2019, MaxMem= 4294967296 cpu:       7.9
 (Enter /opt/g09gh/gaussian/g09/l303.exe)
 DipDrv:  MaxL=1.
 Leave Link  303 at Mon Sep  9 23:21:17 2019, MaxMem= 4294967296 cpu:       1.5
 (Enter /opt/g09gh/gaussian/g09/l401.exe)
 Harris functional with IExCor=  205 diagonalized for initial guess.
 ExpMin= 1.03D-01 ExpMax= 1.53D+04 ExpMxC= 5.22D+02 IAcc=1 IRadAn=         1 AccDes= 0.00D+00
 HarFok:  IExCor=  205 AccDes= 0.00D+00 IRadAn=         1 IDoV= 1
 ScaDFX=  1.000000  1.000000  1.000000  1.000000
 FoFCou: FMM=F IPFlag=           0 FMFlag=      100000 FMFlg1=           0
         NFxFlg=           0 DoJE=T BraDBF=F KetDBF=T FulRan=T
         Omega=  0.000000  0.000000  1.000000  0.000000  0.000000 ICntrl=     500 IOpCl=  0
         NMat0=    1 NMatS0=    1 NMatT0=    0 NMatD0=    1 NMtDS0=    0 NMtDT0=    0
         I1Cent=           4 NGrid=           0.
 Symmetry not used in FoFCou.
 Harris En= -412.997557335868    
 Leave Link  401 at Mon Sep  9 23:21:18 2019, MaxMem= 4294967296 cpu:      12.4
 (Enter /opt/g09gh/gaussian/g09/l502.exe)
 Closed shell SCF:
 Requested convergence on RMS density matrix=1.00D-08 within  64 cycles.
 Requested convergence on MAX density matrix=1.00D-06.
 Requested convergence on             energy=1.00D-06.
 No special actions if energy rises.
 Using DIIS extrapolation, IDIIS=  1040.
 Two-electron integral symmetry not used.
 IEnd=     1402306 IEndB=     1402306 NGot=  4294967296 MDV=  4294032295
 LenX=  4294032295 LenY=  4293569215
 Fock matrices will be formed incrementally for  20 cycles.
 Integral accuracy reduced to 1.0D-05 until final iterations.

 Cycle   1  Pass 0  IDiag  1:
 FoFCou: FMM=F IPFlag=           0 FMFlag=      100000 FMFlg1=           0
         NFxFlg=           0 DoJE=F BraDBF=F KetDBF=F FulRan=T
         Omega=  0.000000  0.000000  1.000000  0.000000  0.000000 ICntrl=       0 IOpCl=  0
         NMat0=    1 NMatS0=    1 NMatT0=    0 NMatD0=    1 NMtDS0=    0 NMtDT0=    0
         I1Cent=           0 NGrid=           0.
 Symmetry not used in FoFCou.
 E= -412.276657022734    
 DIIS: error= 2.94D-02 at cycle   1 NSaved=   1.
 NSaved= 1 IEnMin= 1 EnMin= -412.276657022734     IErMin= 1 ErrMin= 2.94D-02
 ErrMax= 2.94D-02 EMaxC= 1.00D-01 BMatC= 8.09D-01 BMatP= 8.09D-01
 IDIUse=3 WtCom= 7.06D-01 WtEn= 2.94D-01
 Coeff-Com:  0.100D+01
 Coeff-En:   0.100D+01
 Coeff:      0.100D+01
 Gap=     0.438 Goal=   None    Shift=    0.000
 GapD=    0.438 DampG=2.000 DampE=0.500 DampFc=1.0000 IDamp=-1.
 RMSDP=1.18D-03 MaxDP=1.24D-01              OVMax= 1.63D-01

 Cycle   2  Pass 0  IDiag  1:
 RMSU=  8.31D-04    CP:  1.01D+00
 E= -412.541804190884     Delta-E=       -0.265147168150 Rises=F Damp=F
 DIIS: error= 1.22D-02 at cycle   2 NSaved=   2.
 NSaved= 2 IEnMin= 2 EnMin= -412.541804190884     IErMin= 2 ErrMin= 1.22D-02
 ErrMax= 1.22D-02 EMaxC= 1.00D-01 BMatC= 1.15D-01 BMatP= 8.09D-01
 IDIUse=3 WtCom= 8.78D-01 WtEn= 1.22D-01
 Coeff-Com:  0.199D+00 0.801D+00
 Coeff-En:   0.000D+00 0.100D+01
 Coeff:      0.175D+00 0.825D+00
 Gap=     0.462 Goal=   None    Shift=    0.000
 RMSDP=6.06D-04 MaxDP=7.76D-02 DE=-2.65D-01 OVMax= 7.50D-02

 Cycle   3  Pass 0  IDiag  1:
 RMSU=  2.25D-04    CP:  1.01D+00  5.61D-01
 E= -412.603070289739     Delta-E=       -0.061266098854 Rises=F Damp=F
 DIIS: error= 8.45D-03 at cycle   3 NSaved=   3.
 NSaved= 3 IEnMin= 3 EnMin= -412.603070289739     IErMin= 3 ErrMin= 8.45D-03
 ErrMax= 8.45D-03 EMaxC= 1.00D-01 BMatC= 2.32D-02 BMatP= 1.15D-01
 IDIUse=3 WtCom= 9.15D-01 WtEn= 8.45D-02
 Coeff-Com: -0.194D-01 0.287D+00 0.732D+00
 Coeff-En:   0.000D+00 0.000D+00 0.100D+01
 Coeff:     -0.177D-01 0.263D+00 0.755D+00
 Gap=     0.458 Goal=   None    Shift=    0.000
 RMSDP=1.45D-04 MaxDP=1.07D-02 DE=-6.13D-02 OVMax= 3.58D-02

 Cycle   4  Pass 0  IDiag  1:
 RMSU=  6.35D-05    CP:  1.01D+00  6.48D-01  8.46D-01
 E= -412.617706257602     Delta-E=       -0.014635967863 Rises=F Damp=F
 DIIS: error= 2.52D-03 at cycle   4 NSaved=   4.
 NSaved= 4 IEnMin= 4 EnMin= -412.617706257602     IErMin= 4 ErrMin= 2.52D-03
 ErrMax= 2.52D-03 EMaxC= 1.00D-01 BMatC= 1.20D-03 BMatP= 2.32D-02
 IDIUse=3 WtCom= 9.75D-01 WtEn= 2.52D-02
 Coeff-Com: -0.129D-01 0.549D-01 0.260D+00 0.698D+00
 Coeff-En:   0.000D+00 0.000D+00 0.000D+00 0.100D+01
 Coeff:     -0.126D-01 0.535D-01 0.253D+00 0.706D+00
 Gap=     0.455 Goal=   None    Shift=    0.000
 RMSDP=4.27D-05 MaxDP=3.26D-03 DE=-1.46D-02 OVMax= 6.76D-03

 Cycle   5  Pass 0  IDiag  1:
 RMSU=  1.87D-05    CP:  1.01D+00  6.32D-01  9.30D-01  9.24D-01
 E= -412.618787137618     Delta-E=       -0.001080880016 Rises=F Damp=F
 DIIS: error= 4.39D-04 at cycle   5 NSaved=   5.
 NSaved= 5 IEnMin= 5 EnMin= -412.618787137618     IErMin= 5 ErrMin= 4.39D-04
 ErrMax= 4.39D-04 EMaxC= 1.00D-01 BMatC= 5.31D-05 BMatP= 1.20D-03
 IDIUse=3 WtCom= 9.96D-01 WtEn= 4.39D-03
 Coeff-Com:  0.326D-02-0.294D-01-0.103D+00-0.104D+00 0.123D+01
 Coeff-En:   0.000D+00 0.000D+00 0.000D+00 0.000D+00 0.100D+01
 Coeff:      0.325D-02-0.293D-01-0.103D+00-0.103D+00 0.123D+01
 Gap=     0.446 Goal=   None    Shift=    0.000
 RMSDP=2.57D-05 MaxDP=1.90D-03 DE=-1.08D-03 OVMax= 7.11D-03

 Cycle   6  Pass 0  IDiag  1:
 RMSU=  5.81D-06    CP:  1.01D+00  6.24D-01  9.66D-01  1.09D+00  1.44D+00
 E= -412.618964483621     Delta-E=       -0.000177346003 Rises=F Damp=F
 DIIS: error= 2.28D-04 at cycle   6 NSaved=   6.
 NSaved= 6 IEnMin= 6 EnMin= -412.618964483621     IErMin= 6 ErrMin= 2.28D-04
 ErrMax= 2.28D-04 EMaxC= 1.00D-01 BMatC= 8.62D-06 BMatP= 5.31D-05
 IDIUse=3 WtCom= 9.98D-01 WtEn= 2.28D-03
 Coeff-Com:  0.132D-02-0.670D-02-0.253D-01-0.898D-01 0.182D-01 0.110D+01
 Coeff-En:   0.000D+00 0.000D+00 0.000D+00 0.000D+00 0.000D+00 0.100D+01
 Coeff:      0.132D-02-0.669D-02-0.252D-01-0.896D-01 0.181D-01 0.110D+01
 Gap=     0.447 Goal=   None    Shift=    0.000
 RMSDP=1.04D-05 MaxDP=8.08D-04 DE=-1.77D-04 OVMax= 3.23D-03

 Cycle   7  Pass 0  IDiag  1:
 RMSU=  2.16D-06    CP:  1.01D+00  6.20D-01  9.81D-01  1.14D+00  1.65D+00
                    CP:  1.37D+00
 E= -412.618990475445     Delta-E=       -0.000025991824 Rises=F Damp=F
 DIIS: error= 6.00D-05 at cycle   7 NSaved=   7.
 NSaved= 7 IEnMin= 7 EnMin= -412.618990475445     IErMin= 7 ErrMin= 6.00D-05
 ErrMax= 6.00D-05 EMaxC= 1.00D-01 BMatC= 1.57D-06 BMatP= 8.62D-06
 IDIUse=1 WtCom= 1.00D+00 WtEn= 0.00D+00
 Coeff-Com: -0.259D-03 0.325D-02 0.134D-01-0.517D-02-0.176D+00 0.190D+00
 Coeff-Com:  0.974D+00
 Coeff:     -0.259D-03 0.325D-02 0.134D-01-0.517D-02-0.176D+00 0.190D+00
 Coeff:      0.974D+00
 Gap=     0.447 Goal=   None    Shift=    0.000
 RMSDP=3.59D-06 MaxDP=3.23D-04 DE=-2.60D-05 OVMax= 1.02D-03

 Initial convergence to 1.0D-05 achieved.  Increase integral accuracy.
 Cycle   8  Pass 1  IDiag  1:
 E= -412.618996074456     Delta-E=       -0.000005599011 Rises=F Damp=F
 DIIS: error= 2.12D-05 at cycle   1 NSaved=   1.
 NSaved= 1 IEnMin= 1 EnMin= -412.618996074456     IErMin= 1 ErrMin= 2.12D-05
 ErrMax= 2.12D-05 EMaxC= 1.00D-01 BMatC= 3.44D-07 BMatP= 3.44D-07
 IDIUse=1 WtCom= 1.00D+00 WtEn= 0.00D+00
 Coeff-Com:  0.100D+01
 Coeff:      0.100D+01
 Gap=     0.447 Goal=   None    Shift=    0.000
 RMSDP=3.59D-06 MaxDP=3.23D-04 DE=-5.60D-06 OVMax= 2.71D-04

 Cycle   9  Pass 1  IDiag  1:
 RMSU=  4.66D-06    CP:  1.00D+00
 E= -412.618996498825     Delta-E=       -0.000000424368 Rises=F Damp=F
 DIIS: error= 2.05D-05 at cycle   2 NSaved=   2.
 NSaved= 2 IEnMin= 2 EnMin= -412.618996498825     IErMin= 2 ErrMin= 2.05D-05
 ErrMax= 2.05D-05 EMaxC= 1.00D-01 BMatC= 7.78D-08 BMatP= 3.44D-07
 IDIUse=1 WtCom= 1.00D+00 WtEn= 0.00D+00
 Coeff-Com:  0.181D+00 0.819D+00
 Coeff:      0.181D+00 0.819D+00
 Gap=     0.447 Goal=   None    Shift=    0.000
 RMSDP=5.08D-07 MaxDP=4.61D-05 DE=-4.24D-07 OVMax= 1.29D-04

 Cycle  10  Pass 1  IDiag  1:
 RMSU=  2.86D-07    CP:  1.00D+00  1.05D+00
 E= -412.618996621159     Delta-E=       -0.000000122334 Rises=F Damp=F
 DIIS: error= 6.60D-06 at cycle   3 NSaved=   3.
 NSaved= 3 IEnMin= 3 EnMin= -412.618996621159     IErMin= 3 ErrMin= 6.60D-06
 ErrMax= 6.60D-06 EMaxC= 1.00D-01 BMatC= 2.95D-08 BMatP= 7.78D-08
 IDIUse=1 WtCom= 1.00D+00 WtEn= 0.00D+00
 Coeff-Com: -0.177D+00 0.205D+00 0.972D+00
 Coeff:     -0.177D+00 0.205D+00 0.972D+00
 Gap=     0.447 Goal=   None    Shift=    0.000
 RMSDP=4.91D-07 MaxDP=5.29D-05 DE=-1.22D-07 OVMax= 1.24D-04

 Cycle  11  Pass 1  IDiag  1:
 RMSU=  2.59D-07    CP:  1.00D+00  1.08D+00  1.57D+00
 E= -412.618996686118     Delta-E=       -0.000000064959 Rises=F Damp=F
 DIIS: error= 4.62D-06 at cycle   4 NSaved=   4.
 NSaved= 4 IEnMin= 4 EnMin= -412.618996686118     IErMin= 4 ErrMin= 4.62D-06
 ErrMax= 4.62D-06 EMaxC= 1.00D-01 BMatC= 3.49D-09 BMatP= 2.95D-08
 IDIUse=1 WtCom= 1.00D+00 WtEn= 0.00D+00
 Coeff-Com:  0.200D-02-0.217D+00-0.330D+00 0.155D+01
 Coeff:      0.200D-02-0.217D+00-0.330D+00 0.155D+01
 Gap=     0.447 Goal=   None    Shift=    0.000
 RMSDP=3.47D-07 MaxDP=3.62D-05 DE=-6.50D-08 OVMax= 1.09D-04

 Cycle  12  Pass 1  IDiag  1:
 RMSU=  5.03D-08    CP:  1.00D+00  1.09D+00  2.13D+00  1.68D+00
 E= -412.618996704042     Delta-E=       -0.000000017924 Rises=F Damp=F
 DIIS: error= 6.54D-07 at cycle   5 NSaved=   5.
 NSaved= 5 IEnMin= 5 EnMin= -412.618996704042     IErMin= 5 ErrMin= 6.54D-07
 ErrMax= 6.54D-07 EMaxC= 1.00D-01 BMatC= 3.62D-10 BMatP= 3.49D-09
 IDIUse=1 WtCom= 1.00D+00 WtEn= 0.00D+00
 Coeff-Com:  0.101D-01-0.900D-01-0.180D+00 0.521D+00 0.739D+00
 Coeff:      0.101D-01-0.900D-01-0.180D+00 0.521D+00 0.739D+00
 Gap=     0.447 Goal=   None    Shift=    0.000
 RMSDP=6.16D-08 MaxDP=6.96D-06 DE=-1.79D-08 OVMax= 1.21D-05

 Cycle  13  Pass 1  IDiag  1:
 RMSU=  1.71D-08    CP:  1.00D+00  1.09D+00  2.21D+00  1.80D+00  1.18D+00
 E= -412.618996704591     Delta-E=       -0.000000000549 Rises=F Damp=F
 DIIS: error= 2.66D-07 at cycle   6 NSaved=   6.
 NSaved= 6 IEnMin= 6 EnMin= -412.618996704591     IErMin= 6 ErrMin= 2.66D-07
 ErrMax= 2.66D-07 EMaxC= 1.00D-01 BMatC= 2.94D-11 BMatP= 3.62D-10
 IDIUse=1 WtCom= 1.00D+00 WtEn= 0.00D+00
 Coeff-Com:  0.535D-03 0.316D-01 0.462D-01-0.211D+00 0.465D-01 0.109D+01
 Coeff:      0.535D-03 0.316D-01 0.462D-01-0.211D+00 0.465D-01 0.109D+01
 Gap=     0.447 Goal=   None    Shift=    0.000
 RMSDP=1.70D-08 MaxDP=1.12D-06 DE=-5.49D-10 OVMax= 4.12D-06

 Cycle  14  Pass 1  IDiag  1:
 RMSU=  5.77D-09    CP:  1.00D+00  1.09D+00  2.22D+00  1.83D+00  1.32D+00
                    CP:  1.24D+00
 E= -412.618996704651     Delta-E=       -0.000000000060 Rises=F Damp=F
 DIIS: error= 1.79D-07 at cycle   7 NSaved=   7.
[...]
   D56        0.00013   0.00000   0.00000  -0.00005  -0.00005   0.00008
   D57       -3.14151   0.00000   0.00000   0.00006   0.00006  -3.14145
         Item               Value     Threshold  Converged?
 Maximum Force            0.000041     0.000450     YES
 RMS     Force            0.000010     0.000300     YES
 Maximum Displacement     0.000571     0.001800     YES
 RMS     Displacement     0.000163     0.001200     YES
 Predicted change in Energy=-5.078232D-08
 Optimization completed.
    -- Stationary point found.
                           ----------------------------
                           !   Optimized Parameters   !
                           ! (Angstroms and Degrees)  !
 --------------------------                            --------------------------
 ! Name  Definition              Value          Derivative Info.                !
 --------------------------------------------------------------------------------
 ! R1    R(1,2)                  1.2147         -DE/DX =    0.0                 !
 ! R2    R(2,3)                  1.3895         -DE/DX =    0.0                 !
 ! R3    R(2,7)                  1.3792         -DE/DX =    0.0                 !
 ! R4    R(3,4)                  1.3668         -DE/DX =    0.0                 !
 ! R5    R(3,10)                 1.0061         -DE/DX =    0.0                 !
 ! R6    R(4,5)                  1.3482         -DE/DX =    0.0                 !
 ! R7    R(4,12)                 1.08           -DE/DX =    0.0                 !
 ! R8    R(5,6)                  1.4523         -DE/DX =    0.0                 !
 ! R9    R(5,9)                  1.0761         -DE/DX =    0.0                 !
 ! R10   R(6,7)                  1.3942         -DE/DX =    0.0                 !
 ! R11   R(6,8)                  1.2248         -DE/DX =    0.0                 !
 ! R12   R(7,11)                 1.0255         -DE/DX =    0.0                 !
 ! R13   R(8,21)                 2.2294         -DE/DX =    0.0                 !
 ! R14   R(11,13)                1.8839         -DE/DX =    0.0                 !
 ! R15   R(13,14)                1.2263         -DE/DX =    0.0                 !
 ! R16   R(14,15)                1.395          -DE/DX =    0.0                 !
 ! R17   R(14,19)                1.4476         -DE/DX =    0.0                 !
 ! R18   R(15,16)                1.3819         -DE/DX =    0.0                 !
 ! R19   R(15,23)                1.0111         -DE/DX =    0.0                 !
 ! R20   R(16,17)                1.3829         -DE/DX =    0.0                 !
 ! R21   R(16,20)                1.2147         -DE/DX =    0.0                 !
 ! R22   R(17,18)                1.3708         -DE/DX =    0.0                 !
 ! R23   R(17,22)                1.0064         -DE/DX =    0.0                 !
 ! R24   R(18,19)                1.349          -DE/DX =    0.0                 !
 ! R25   R(18,24)                1.0798         -DE/DX =    0.0                 !
 ! R26   R(19,21)                1.0788         -DE/DX =    0.0                 !
 ! A1    A(1,2,3)              122.2231         -DE/DX =    0.0                 !
 ! A2    A(1,2,7)              124.558          -DE/DX =    0.0                 !
 ! A3    A(3,2,7)              113.2189         -DE/DX =    0.0                 !
 ! A4    A(2,3,4)              123.704          -DE/DX =    0.0                 !
 ! A5    A(2,3,10)             114.9393         -DE/DX =    0.0                 !
 ! A6    A(4,3,10)             121.3567         -DE/DX =    0.0                 !
 ! A7    A(3,4,5)              121.5455         -DE/DX =    0.0                 !
 ! A8    A(3,4,12)             115.7539         -DE/DX =    0.0                 !
 ! A9    A(5,4,12)             122.7006         -DE/DX =    0.0                 !
 ! A10   A(4,5,6)              119.6128         -DE/DX =    0.0                 !
 ! A11   A(4,5,9)              121.6403         -DE/DX =    0.0                 !
 ! A12   A(6,5,9)              118.7469         -DE/DX =    0.0                 !
 ! A13   A(5,6,7)              114.3374         -DE/DX =    0.0                 !
 ! A14   A(5,6,8)              124.7164         -DE/DX =    0.0                 !
 ! A15   A(7,6,8)              120.9462         -DE/DX =    0.0                 !
 ! A16   A(2,7,6)              127.5814         -DE/DX =    0.0                 !
 ! A17   A(2,7,11)             115.6252         -DE/DX =    0.0                 !
 ! A18   A(6,7,11)             116.7934         -DE/DX =    0.0                 !
 ! A19   A(6,8,21)             130.6727         -DE/DX =    0.0                 !
 ! A20   A(11,13,14)           128.4407         -DE/DX =    0.0                 !
 ! A21   A(13,14,15)           119.5987         -DE/DX =    0.0                 !
 ! A22   A(13,14,19)           126.165          -DE/DX =    0.0                 !
 ! A23   A(15,14,19)           114.2363         -DE/DX =    0.0                 !
 ! A24   A(14,15,16)           128.306          -DE/DX =    0.0                 !
 ! A25   A(14,15,23)           116.2564         -DE/DX =    0.0                 !
 ! A26   A(16,15,23)           115.4376         -DE/DX =    0.0                 !
 ! A27   A(15,16,17)           112.5803         -DE/DX =    0.0                 !
 ! A28   A(15,16,20)           123.9992         -DE/DX =    0.0                 !
 ! A29   A(17,16,20)           123.4205         -DE/DX =    0.0                 !
 ! A30   A(16,17,18)           123.664          -DE/DX =    0.0                 !
 ! A31   A(16,17,22)           115.1317         -DE/DX =    0.0                 !
 ! A32   A(18,17,22)           121.2043         -DE/DX =    0.0                 !
 ! A33   A(17,18,19)           122.17           -DE/DX =    0.0                 !
 ! A34   A(17,18,24)           115.482          -DE/DX =    0.0                 !
 ! A35   A(19,18,24)           122.348          -DE/DX =    0.0                 !
 ! A36   A(14,19,18)           119.0433         -DE/DX =    0.0                 !
 ! A37   A(14,19,21)           118.6363         -DE/DX =    0.0                 !
 ! A38   A(18,19,21)           122.3204         -DE/DX =    0.0                 !
 ! A39   A(8,21,19)            158.4925         -DE/DX =    0.0                 !
 ! A40   L(7,11,13,2,-1)       180.1468         -DE/DX =    0.0                 !
 ! A41   L(7,11,13,2,-2)       179.9972         -DE/DX =    0.0                 !
 ! D1    D(1,2,3,4)           -180.0092         -DE/DX =    0.0                 !
 ! D2    D(1,2,3,10)            -0.0095         -DE/DX =    0.0                 !
 ! D3    D(7,2,3,4)              0.0058         -DE/DX =    0.0                 !
 ! D4    D(7,2,3,10)           180.0055         -DE/DX =    0.0                 !
 ! D5    D(1,2,7,6)            180.0072         -DE/DX =    0.0                 !
 ! D6    D(1,2,7,11)             0.0073         -DE/DX =    0.0                 !
 ! D7    D(3,2,7,6)             -0.0081         -DE/DX =    0.0                 !
 ! D8    D(3,2,7,11)          -180.0081         -DE/DX =    0.0                 !
 ! D9    D(2,3,4,5)             -0.0033         -DE/DX =    0.0                 !
 ! D10   D(2,3,4,12)          -180.001          -DE/DX =    0.0                 !
 ! D11   D(10,3,4,5)          -180.003          -DE/DX =    0.0                 !
 ! D12   D(10,3,4,12)           -0.0007         -DE/DX =    0.0                 !
 ! D13   D(3,4,5,6)              0.0021         -DE/DX =    0.0                 !
 ! D14   D(3,4,5,9)            180.0033         -DE/DX =    0.0                 !
 ! D15   D(12,4,5,6)          -180.0004         -DE/DX =    0.0                 !
 ! D16   D(12,4,5,9)             0.0009         -DE/DX =    0.0                 !
 ! D17   D(4,5,6,7)             -0.0037         -DE/DX =    0.0                 !
 ! D18   D(4,5,6,8)            180.0075         -DE/DX =    0.0                 !
 ! D19   D(9,5,6,7)           -180.0049         -DE/DX =    0.0                 !
 ! D20   D(9,5,6,8)              0.0063         -DE/DX =    0.0                 !
 ! D21   D(5,6,7,2)              0.0072         -DE/DX =    0.0                 !
 ! D22   D(5,6,7,11)           180.0072         -DE/DX =    0.0                 !
 ! D23   D(8,6,7,2)           -180.0035         -DE/DX =    0.0                 !
 ! D24   D(8,6,7,11)            -0.0035         -DE/DX =    0.0                 !
 ! D25   D(5,6,8,21)          -180.0105         -DE/DX =    0.0                 !
 ! D26   D(7,6,8,21)             0.0013         -DE/DX =    0.0                 !
 ! D27   D(2,7,13,14)         -179.9956         -DE/DX =    0.0                 !
 ! D28   D(6,7,13,14)            0.0055         -DE/DX =    0.0                 !
 ! D29   D(6,8,21,19)           -0.0011         -DE/DX =    0.0                 !
 ! D30   D(11,13,14,15)       -180.0104         -DE/DX =    0.0                 !
 ! D31   D(11,13,14,19)          0.0016         -DE/DX =    0.0                 !
 ! D32   D(13,14,15,16)        180.0085         -DE/DX =    0.0                 !
 ! D33   D(13,14,15,23)          0.0094         -DE/DX =    0.0                 !
 ! D34   D(19,14,15,16)         -0.0021         -DE/DX =    0.0                 !
 ! D35   D(19,14,15,23)        179.9988         -DE/DX =    0.0                 !
 ! D36   D(13,14,19,18)       -180.0046         -DE/DX =    0.0                 !
 ! D37   D(13,14,19,21)         -0.007          -DE/DX =    0.0                 !
 ! D38   D(15,14,19,18)          0.0068         -DE/DX =    0.0                 !
 ! D39   D(15,14,19,21)        180.0044         -DE/DX =    0.0                 !
 ! D40   D(14,15,16,17)         -0.004          -DE/DX =    0.0                 !
 ! D41   D(14,15,16,20)        180.0098         -DE/DX =    0.0                 !
 ! D42   D(23,15,16,17)       -180.0049         -DE/DX =    0.0                 !
 ! D43   D(23,15,16,20)          0.0089         -DE/DX =    0.0                 !
 ! D44   D(15,16,17,18)          0.0058         -DE/DX =    0.0                 !
 ! D45   D(15,16,17,22)        180.006          -DE/DX =    0.0                 !
 ! D46   D(20,16,17,18)       -180.0079         -DE/DX =    0.0                 !
 ! D47   D(20,16,17,22)         -0.0077         -DE/DX =    0.0                 !
 ! D48   D(16,17,18,19)         -0.0013         -DE/DX =    0.0                 !
 ! D49   D(16,17,18,24)       -180.0026         -DE/DX =    0.0                 !
 ! D50   D(22,17,18,19)       -180.0015         -DE/DX =    0.0                 !
 ! D51   D(22,17,18,24)         -0.0028         -DE/DX =    0.0                 !
 ! D52   D(17,18,19,14)         -0.0055         -DE/DX =    0.0                 !
 ! D53   D(17,18,19,21)       -180.003          -DE/DX =    0.0                 !
 ! D54   D(24,18,19,14)       -180.004          -DE/DX =    0.0                 !
 ! D55   D(24,18,19,21)         -0.0015         -DE/DX =    0.0                 !
 ! D56   D(14,19,21,8)           0.0073         -DE/DX =    0.0                 !
 ! D57   D(18,19,21,8)        -179.9952         -DE/DX =    0.0                 !
 --------------------------------------------------------------------------------
 GradGradGradGradGradGradGradGradGradGradGradGradGradGradGradGradGradGrad

 Largest change from initial coordinates is atom    0       0.000 Angstoms.
 Leave Link  103 at Tue Sep 10 05:01:27 2019, MaxMem= 4294967296 cpu:       3.6
 (Enter /opt/g09gh/gaussian/g09/l202.exe)
                          Input orientation:                          
 ---------------------------------------------------------------------
 Center     Atomic      Atomic             Coordinates (Angstroms)
 Number     Number       Type             X           Y           Z
 ---------------------------------------------------------------------
      1          8           0        3.641754    0.290742    0.000097
      2          6           0        3.145241   -0.817842   -0.000081
      3          7           0        3.915207   -1.974534    0.000101
      4          6           0        3.388934   -3.235982    0.000092
      5          6           0        2.056954   -3.444559   -0.000032
      6          6           0        1.152599   -2.308140   -0.000206
      7          7           0        1.788804   -1.067562   -0.000145
      8          8           0       -0.069552   -2.389232   -0.000196
      9          1           0        1.640975   -4.437017    0.000014
     10          1           0        4.909705   -1.822161    0.000239
     11          1           0        1.185200   -0.238493   -0.000148
     12          1           0        4.105979   -4.043599    0.000229
     13          8           0        0.072475    1.281669   -0.000210
     14          6           0       -1.152916    1.329544   -0.000192
     15          7           0       -1.794066    2.568495   -0.000026
     16          6           0       -3.150874    2.830874    0.000182
     17          7           0       -3.914637    1.678050    0.000132
     18          6           0       -3.383193    0.414471    0.000016
     19          6           0       -2.052147    0.195094   -0.000085
     20          8           0       -3.626551    3.948546    0.000145
     21          1           0       -1.631278   -0.798277   -0.000129
     22          1           0       -4.910260    1.824953    0.000184
     23          1           0       -1.194315    3.382504   -0.000076
     24          1           0       -4.101605   -0.391656    0.000034
 ---------------------------------------------------------------------
                    Distance matrix (angstroms):
                    1          2          3          4          5
     1  O    0.000000
     2  C    1.214695   0.000000
     3  N    2.281721   1.389527   0.000000
     4  C    3.535774   2.430388   1.366826   0.000000
     5  C    4.057593   2.843239   2.369405   1.348212   0.000000
     6  C    3.598622   2.488295   2.782678   2.421174   1.452345
     7  N    2.297480   1.379232   2.311750   2.694895   2.392074
     8  O    4.577778   3.578290   4.006280   3.560634   2.373972
     9  H    5.133695   3.919342   3.352007   2.120813   1.076109
    10  H    2.464155   2.030268   1.006103   2.076448   3.281823
    11  H    2.512916   2.043870   3.235240   3.720401   3.322471
    12  H    4.359130   3.365788   2.077841   1.079999   2.134796
    13  O    3.704280   3.721537   5.036809   5.604290   5.125952
    14  C    4.905912   4.804729   6.050025   6.439909   5.752854
    15  N    5.893751   5.988659   7.296226   7.781738   7.140530
    16  C    7.252039   7.276963   8.545259   8.920529   8.154908
    17  N    7.682686   7.488081   8.639897   8.802832   7.867720
    18  C    7.026037   6.643722   7.679452   7.693342   6.669881
    19  C    5.694704   5.295175   6.349535   6.432546   5.489243
    20  O    8.136817   8.281040   9.589629  10.041637   9.325247
    21  H    5.384313   4.776559   5.669839   5.580765   4.539368
    22  H    8.688541   8.477940   9.608588   9.720580   8.735550
    23  H    5.739909   6.039425   7.403045   8.050499   7.561715
    24  H    7.773370   7.259367   8.171584   8.012388   6.873723
                    6          7          8          9         10
     6  C    0.000000
     7  N    1.394199   0.000000
     8  O    1.224838   2.280416   0.000000
     9  H    2.184177   3.372696   2.668207   0.000000
    10  H    3.788406   3.210832   5.011444   4.185937   0.000000
    11  H    2.069904   1.025521   2.489996   4.223190   4.047214
    12  H    3.425532   3.771750   4.491324   2.496202   2.362364
    13  O    3.748786   2.909411   3.673647   5.929887   5.747395
    14  C    4.306756   3.794711   3.873367   6.407734   6.832907
    15  N    5.697754   5.104691   5.249096   7.802353   8.013639
    16  C    6.702936   6.292712   6.061687   8.705404   9.307184
    17  N    6.447216   6.329899   5.597094   8.261893   9.493181
    18  C    5.290181   5.380146   4.340618   6.984211   8.589219
    19  C    4.066519   4.043168   3.257211   5.924154   7.248221
    20  O    7.873144   7.381559   7.267714   9.902752  10.303821
    21  H    3.166963   3.430667   2.229378   4.893676   6.620634
    22  H    7.337623   7.296856   6.418085   9.062613  10.475359
    23  H    6.155602   5.357433   5.880309   8.317679   8.021695
    24  H    5.592814   5.929061   4.499751   7.024398   9.124147
                   11         12         13         14         15
    11  H    0.000000
    12  H    4.796851   0.000000
    13  O    1.883892   6.680392   0.000000
    14  C    2.815231   7.518420   1.226326   0.000000
    15  N    4.093313   8.861733   2.267134   1.395017   0.000000
    16  C    5.312490   9.996014   3.576313   2.499165   1.381945
    17  N    5.448071   9.852286   4.006767   2.783623   2.299938
    18  C    4.614821   8.715623   3.562818   2.410704   2.676779
    19  C    3.266254   7.475897   2.386349   1.447616   2.387391
    20  O    6.378420  11.120540   4.560156   3.602505   2.294023
    21  H    2.871569   6.591527   2.688671   2.180929   3.370705
    22  H    6.435250  10.757903   5.012266   3.789863   3.203673
    23  H    4.332864   9.123602   2.453215   2.053377   1.011094
    24  H    5.289023   8.983380   4.496995   3.414278   3.753296
                   16         17         18         19         20
    16  C    0.000000
    17  N    1.382873   0.000000
    18  C    2.427545   1.370790   0.000000
    19  C    2.855615   2.380762   1.349003   0.000000
    20  O    1.214685   2.288700   3.542444   4.070276   0.000000
    21  H    3.934452   3.368371   2.130719   1.078850   5.149121
    22  H    2.026651   1.006402   2.078796   3.290175   2.481442
    23  H    2.032835   3.210189   3.687873   3.300827   2.497234
    24  H    3.359850   2.078134   1.079795   2.131796   4.366123
                   21         22         23         24
    21  H    0.000000
    22  H    4.199174   0.000000
    23  H    4.203554   4.029170   0.000000
    24  H    2.503569   2.359508   4.764097   0.000000
 Symmetry turned off by external request.
 Stoichiometry    C8H8N4O4
 Framework group  C1[X(C8H8N4O4)]
 Deg. of freedom    66
 Full point group                 C1      NOp   1
 Rotational constants (GHZ):      1.3711115      0.2109119      0.1827936
 Leave Link  202 at Tue Sep 10 05:01:29 2019, MaxMem= 4294967296 cpu:       0.0
 (Enter /opt/g09gh/gaussian/g09/l9999.exe)

 Test job not archived.
 1\1\GINC-NODE36\FOpt\RMP2-FC\CC-pVTZ\C8H8N4O4\XY3866\10-Sep-2019\0\\#p
  MP2/cc-pvtz counterpoise=2 IOP(5/13=1) Symmetry=None MaxDisk=100GB Op
 t\\Opt=tight\\0,1\O,3.641754,0.290742,0.000097\C,3.145241,-0.817842,-0
 .000081\N,3.915207,-1.974534,0.000101\C,3.388934,-3.235982,0.000092\C,
 2.056954,-3.444559,-0.000032\C,1.152599,-2.30814,-0.000206\N,1.788804,
 -1.067562,-0.000145\O,-0.069552,-2.389232,-0.000196\H,1.640975,-4.4370
 17,0.000014\H,4.909705,-1.822161,0.000239\H,1.1852,-0.238493,-0.000148
 \H,4.105979,-4.043599,0.000229\O,0.072475,1.281669,-0.00021\C,-1.15291
 6,1.329544,-0.000192\N,-1.794066,2.568495,-0.000026\C,-3.150874,2.8308
 74,0.000182\N,-3.914637,1.67805,0.000132\C,-3.383193,0.414471,0.000016
 \C,-2.052147,0.195094,-0.000085\O,-3.626551,3.948546,0.000145\H,-1.631
 278,-0.798277,-0.000129\H,-4.91026,1.824953,0.000184\H,-1.194315,3.382
 504,-0.000076\H,-4.101605,-0.391656,0.000034\\Version=EM64L-G09RevA.02
 \HF=-412.6187612\MP2=-414.0921775\RMSD=8.141e-09\RMSF=1.974e-05\Dipole
 =-0.2274157,-1.74792,0.0001267\PG=C01 [X(C8H8N4O4)]\\@


 WHEN A MATHEMATICIAN ENGAGED IN INVESTIGATING
 PHYSICAL ACTIONS AND RESULTS HAS ARRIVED AT HIS
 CONCLUSIONS, MAY THEY NOT BE EXPRESSED IN COMMON
 LANGUAGE AS FULLY, CLEARLY, AND DEFINITELY AS IN
 MATHEMATICAL FORMULAE?
           - LETTER FROM M. FARADAY TO J.C. MAXWELL, 1857.
 Job cpu time:  3 days 18 hours  9 minutes 34.3 seconds.
 File lengths (MBytes):  RWF=    272 Int=      0 D2E=      0 Chk=     60 Scr=      1
 Normal termination of Gaussian 09 at Tue Sep 10 05:01:30 2019.
